 --invoking executable--
/cvmfs/restricted.computecanada.ca/easybuild/software/2020/avx2/Compiler/intel2020/cfour/2.1/bin/xjoda


   *************************************************************************
         <<<     CCCCCC     CCCCCC   |||     CCCCCC     CCCCCC   >>>
       <<<      CCC        CCC       |||    CCC        CCC         >>>
      <<<      CCC        CCC        |||   CCC        CCC            >>>
    <<<        CCC        CCC        |||   CCC        CCC              >>>
      <<<      CCC        CCC        |||   CCC        CCC            >>>
       <<<      CCC        CCC       |||    CCC        CCC         >>>
         <<<     CCCCCC     CCCCCC   |||     CCCCCC     CCCCCC   >>>
   *************************************************************************

     ****************************************************************
     * CFOUR Coupled-Cluster techniques for Computational Chemistry *
     ****************************************************************
 

   Department of Chemistry                Institut fuer Physikalische Chemie
   University of Florida                  Universitaet Mainz
   Gainesville, FL 32611, USA             D-55099 Mainz, Germany

   Department of Chemistry                Fakultaet fuer Chemie und Biowiss.
   Johns Hopkins University               Karlsruher Institut fuer Technologie
   Baltimore, MD 21218, USA               D-76131 Karlsruhe, Germany

   Department of Chemistry                Department of Physical Chemistry
   Southern Methodist University          Eotvos Lorand University
   Dallas, TX 75275, USA                  H-1053 Budapest, Hungary

 
                       Version 2.1
 
                     gra354                                            
                     Sun 24 Mar 2024 01:41:29 PM EDT                   
                     integer*8 version is running
 
********************************************************************************
*                          Input from ZMAT file                                *
********************************************************************************
Test                                                                            
N                                                                               
                                                                                
*ACES2(CALC=CCSD(T)                                                             
#FROZEN_CORE=ON                                                                 
#DROPMO=1                                                                       
#INPUT_MRCC=OFF                                                                 
#CC_PROG=MRCC                                                                   
XFORM_TOL=18                                                                    
SAVE_INTS=ON                                                                    
SCF_EXPORDER=6                                                                  
SCF_EXPSTART=5                                                                  
#SCF_DAMPING=1000                                                               
SCF_EXTRAPOLATION=ON                                                            
SCF_CONV=10                                                                     
SCF_MAXCYC=9999                                                                 
CC_CONV=10                                                                      
CC_MAXCYC=999                                                                   
T3_EXTRAPOL=ON                                                                  
REFERENCE=ROHF                                                                  
CHARGE=+2                                                                       
MULT=2                                                                          
ABCDTYPE=STANDARD                                                               
OCCUPATION=2-1-0-0-0-0-0-0/2-0-0-0-0-0-0-0                                      
MEM=20                                                                          
MEM_UNIT=GB                                                                     
BASIS=SPECIAL)                                                                  
                                                                                
N:aCV6Z-EMOLP                                                                   
                                                                                
********************************************************************************
  @GTFLGS-W, Keyword #FROZEN_CORE not known and is ignored.
  @GTFLGS-W, Keyword #DROPMO not known and is ignored.
  @GTFLGS-W, Keyword #INPUT_MRCC not known and is ignored.
  @GTFLGS-W, Keyword #CC_PROG not known and is ignored.
  @GTFLGS-W, Keyword #SCF_DAMPING not known and is ignored.
    -------------------------------------------------------------------
                    CFOUR Control Parameters 
    -------------------------------------------------------------------
        External           Internal           Value            Units
          Name               Name
    -------------------------------------------------------------------
       ABCDTYPE             IABCDT         STANDARD    [  0]    ***   
       ANHARMONIC           IANHAR         OFF         [  0]    ***   
       ANH_ALGORIT          IANALG         STANDARD    [  0]    ***   
       ANH_DERIVAT          IANDER         SECOND      [  1]    ***   
       ANH_MODE             ANHMOD         VIBRATION   [  0]    ***   
       ANH_STEPSIZ          ICUBST             50000          x 10-6  
       ANH_SYMMETR          IANHSM         ABELIAN     [  0]    ***   
       AO_LADDERS           IAOLAD         SINGLEPASS  [  1]    ***   
       AV_SCF               IAVSCF         OFF         [  0]    ***   
       BASIS                IBASIS         SPECIAL     [  0]    ***   
       BOTHVECTORS          BOTHVC         OFF         [  0]    ***   
       BOX_POTENT           IPIAB          OFF         [  0]    ***   
       BREIT                IBREIT         OFF         [  0]    ***   
       BRUCK_CONV           IBRTOL          10D-  4             ***   
       BRUECKNER            IBRKNR         OFF         [  0]    ***   
       BUFFERSIZE           IBUFFS              4096            ***   
       CACHE_RECS           ICHREC             10               ***   
       CALCLEVEL            ICLLVL         CCSD(T)     [ 22]    ***   
       CCORBOPT             ICCORB         OFF         [  0]  x 0.01  
       CC_CONV              ICCCNV          10D- 10             ***   
       CC_EXPORDER          ICCEOR              5               ***   
       CC_EXTRAPOL          ICCEXT         DIIS        [  1]    ***   
       CC_GUESS             ICCGES         MP2         [  0]    ***   
       CC_MAXCYC            ICCCYC            999              cycles 
       CC_PROGRAM           ICCPRO         VCC         [  0]    ***   
       CHARGE               ICHRGE              2               ***   
       CHOLESKY             ICHOLE         OFF         [  0]    ***   
       CIS_CONV             ICISTL              5               ***   
       COMM_SIZE            IPSIZE            ***               ***   
       CONSTANT             ICONST         OLD         [  1]    ***   
       CONTINUUM            ICONTU         NONE        [  0]    ***   
       CONTRACTION          ICNTYP         GENERAL     [  1]    ***   
       COORDINATES          ICOORD         INTERNAL    [  0]    ***   
       CPHF_CONVER          ICPHFT          10D- 16             ***   
       CPHF_MAXCYC          ICPHFC             64              cycles 
       CUBIC                ICUBIC         OFF         [  0]    ***   
       CURVILINEAR          ICURVY         OFF         [  0]    ***   
       DBOC                 IDBOC          OFF         [  0]    ***   
       DCT                  IDCT           OFF         [  0]    ***   
       DERIV_LEV            IDRLVL         ZERO        [  0]    ***   
       DEVMEM_SIZE          IDVMEM         *********           MByte  
       DIAG_MRCC            IEOMST          10D-  0             ***   
       DIFF_TYPE            IDIFTY         RELAXED     [  0]    ***   
       DIRECT               IDIRCT         OFF         [  0]    ***   
       DROPMO               IDRPMO      NONE         
       ECP                  IECP           OFF         [  0]    ***   
       EIGENVECTOR          IVEC                1               ***   
       EL_ANHARM            IELANH         OFF         [  0]    ***   
       EOMFOLLOW            IEOMSR         ENERGY      [  0]    ***   
       EOMIP                IEOMIP         OFF         [  0]    ***   
       EOMLEVEL             HBARFM         SAME        [  0]    ***   
       EOM_MRCC             IMRCCE         NEW         [  1]    ***   
       EOM_NONIT            EOMNON         OFF         [  0]    ***   
       EOM_NSING            IEOMSI          10D-  0             ***   
       EOM_NSTATES          IMRCCD         DAVIDSON    [  0]    ***   
       EOM_NTRIP            IEOMTR          10D-  0             ***   
       EOM_ORDER            IEXORD         ENERGY      [  0]    ***   
       EOM_PROPSTA          IEOMST              0               ***   
       ESTATE_CONV          IEXTOL          10D-  5             ***   
       ESTATE_DIAG          IEXDIG         ITERATIVE   [  0]    ***   
       ESTATE_LOCK          IESLOC         ON          [  1]    ***   
       ESTATE_MAXC          IEXMXC             40               ***   
       ESTATE_PROP          IEXPRP         OFF         [  0]    ***   
       EVAL_HESS            IRECAL              0            # of cyc.
       EXCITATION           IEXCIT              0               ***   
       EXCITE               IEXCIT         NONE        [  0]    ***   
       EXTERN_POT           IEXPOT         OFF         [  0]    ***   
       FCGRADNEW            IFCGNW         OFF         [  0]    ***   
       FC_FIELD             IFINFC              0             x 10-6  
       FD_CALTYPE           IFDCAL         GRADONLY    [  0]    ***   
       FD_PROJECT           IFDPRJ         OFF         [  1]    ***   
       FD_STEPSIZE          IDISFD              0            10-4 bohr
       FD_USEGROUP          IFDGRP         FULL        [  0]    ***   
       FILE_RECSIZ          IFLREC              4096           words  
       FINITE_PERT          IFIPER              0             x 10-6  
       FIXGEOM              IFIXGM         OFF         [  0]    ***   
       FOCK                 IFOCK          AO          [  1]    ***   
       FREQ_ALGORI          IVIALG         STANDARD    [  0]    ***   
       FROZEN_CORE          IFROCO         OFF         [  0]    ***   
       GAMMA_ABCD           IGABCD         STORE       [  0]    ***   
       GAMMA_ABCI           IGABCI         STORE       [  0]    ***   
       GENBAS_1             IGNBS1              0               ***   
       GENBAS_2             IGNBS2              0               ***   
       GENBAS_3             IGNBS3              0               ***   
       GENBAS_4             IGNBS4              0               ***   
       GEO_CONV             ICONTL              5              H/bohr 
       GEO_MAXCYC           IOPTCY             50               ***   
       GEO_MAXSTEP          IMXSTP            300            millibohr
       GEO_METHOD           INR            SINGLE_POINT[  5]    ***   
       GIAO                 IGIAO          OFF         [  1]    ***   
       GIMIC                IGIMIC         OFF         [  0]    ***   
       GRID                 IGRID          OFF         [  0]    ***   
       GRID_ALGO            IGALGO         SERIAL      [  0]    ***   
       GUESS                IGUESS         MOREAD      [  0]    ***   
       HBAR                 IHBAR          OFF         [  0]    ***   
       HESS_TYPE            IHESTP         SCF         [  0]    ***   
       HF2_FILE             IHF2Fl         USE         [  1]    ***   
       HFSTABILITY          ISTABL         OFF         [  0]    ***   
       INCORE               INCORE         OFF         [  0]    ***   
       INPUT_MRCC           IMRCC          ON          [  1]    ***   
       INTEGRALS            INTTYP         VMOL        [  1]    ***   
       JODA_PRINT           IJPRNT              0               ***   
       KEYWORD_OUT          IDMPKW         NO          [  0]    ***   
       LINDEP_TOL           ILINDP              8               ***   
       LINEQ_CONV           IZTACN          10D-  7           cycles  
       LINEQ_EXPOR          ILMAXD              5               ***   
       LINEQ_MAXCY          ILMAXC            100               ***   
       LINEQ_TYPE           ILTYPE         DIIS        [  1]    ***   
       LOCK_ORBOCC          ILOCOC         OFF         [  0]    ***   
       MEMORY_SIZE          IMEMSZ         *********           words  
       MEM_UNIT             IMEMU          GB          [  3]    ***   
       MRCC                 IMRCCC         OFF         [  0]    ***   
       MULTIPLICTY          IMULTP              2               ***   
       NACOUPLING           IVCOUP         OFF         [  0]    ***   
       NEGEVAL              IDIE           ABORT       [  0]    ***   
       NEWNORM              INEWNO         OFF         [  0]    ***   
       NON-HF               INONHF         ON          [  1]    ***   
       NTOP_TAMP            ITOPT2             15               ***   
       NUC_MODEL            INUCMO         POINT       [  0]    ***   
       OCCUPATION           IOCCU  A   2,  1,  0,  0,  0,  0,  0,  0,
                                   B   2,  0,  0,  0,  0,  0,  0,  0,
       OPEN-SHELL           IOPEN          SPIN-ORBITAL[  0]    ***   
       OPTVIB               IOPTVB         OFF         [  0]    ***   
       ORBITALS             IORBTP         SEMICANONICA[  1]    ***   
       PARALLEL             IPARAL         ON          [  1]    ***   
       PARA_INT             IPINTS         ON          [  1]    ***   
       PARA_PRINT           IPPRIN              0               ***   
       PERT_ORB             IPTORB         STANDARD    [  0]    ***   
       POINTS               IGRDFD              0               ***   
       PRINT                IPRNT               0               ***   
       PROPS                IPROPS         OFF         [  0]    ***   
       PROP_INTEGR          IINTYP         INTERNAL    [  0]    ***   
       PSI                  IPSI           OFF         [  0]    ***   
       QC_ALG               IQCALG         FLM         [  0]    ***   
       QC_LINALG            IQCLIN         TRIDIAG     [  2]    ***   
       QC_MAXCYC            IQCMAX          10D-100           cycles  
       QC_MAXSCFCY          IQCMSC          10D- 15           cycles  
       QC_RTRUST            IQCRTR          10D-  0           x 10-3  
       QC_SKIPSCF           IQCSKI         OFF         [  0]    ***   
       QC_START             IQCSTA          10D-  1             ***   
       QRHFGUESS            IQGUES         OFF         [  0]    ***   
       QUARTIC              IQUART         OFF         [  0]    ***   
       RAMAN_INT            IRAMIN         OFF         [  0]    ***   
       RAMAN_ORB            IRAMRE         UNRELAXED   [  0]    ***   
       RDO                  IRDOFM         OFF         [  0]    ***   
       REDUCE_REPR          REDREP         Ir          [  0]    ***   
       REFERENCE            IREFNC         ROHF        [  2]    ***   
       RELATIVIST           IRELAT         OFF         [  0]    ***   
       RELAX_DENS           IRDENS         OFF         [  0]    ***   
       RESET_FLAGS          IRESET         OFF         [  0]    ***   
       RESTART_CC           ICCRES         OFF         [  0]    ***   
       ROT_EVEC             ROTVEC              0               ***   
       SAVE_INTS            ISVINT         ON          [  1]    ***   
       SCALE_ON             ISTCRT              0               ***   
       SCF_CONV             ISCFCV          10D- 10             ***   
       SCF_DAMPING          IDAMP               0             x 10-3  
       SCF_EXPORDE          IRPPOR              6               ***   
       SCF_EXPSTAR          IRPPLS              5               ***   
       SCF_EXTRAPO          IRPP           ON          [  1]    ***   
       SCF_MAXCYC           ISCFCY            ***              cycles 
       SCF_NOSTOP           ISCFST         OFF         [  0]    ***   
       SCF_PRINT            ISCFPR              0               ***   
       SCF_PROG             ISCFPR         SCF         [  0]    ***   
       SD_FIELD             IFINSD              0             x 10-6  
       SOPERT               IPERSO         OFF         [  0]    ***   
       SPHERICAL            IDFGHI         ON          [  1]    ***   
       SPINORBIT            ISOCAL         OFF         [  0]    ***   
       SPINROTATIO          ISRCON         OFF         [  0]    ***   
       SPIN_FLIP            ISPFLP         OFF         [  0]    ***   
       SPIN_ORBIT           ISPORB         OFF         [  0]    ***   
       SPIN_SCAL            ISCSMP         OFF         [  0]    ***   
       STEEPSCALE           ISTPSC              1000          x 10-3  
       SUBGROUP             ISUBGP         DEFAULT     [  0]    ***   
       SUBGRPAXIS           ISBXYZ         X           [  0]    ***   
       SYMMETRY             ISYM           ON          [  0]    ***   
       SYM_CHECK            ISYMCK         OVERRIDE    [  1]    ***   
       T3_EXTRAPOL          IT3EXT         ON          [  1]    ***   
       T4_EXTRAPOL          IT4EXP         OFF         [  0]    ***   
       TAMP_SUM             IEVERY              5               ***   
       TESTSUITE            ITESTS         OFF         [  0]    ***   
       THERMOCH             ITHERM         OFF         [  0]    ***   
       TOL_CHOLESK          ITOLCH          10D-  4             ***   
       TRANGRAD             IRESRM         OFF         [  0]    ***   
       TRANS_INV            ITRAIN         USE         [  0]    ***   
       TREAT_PERT           ITREAT         SIMULTANEOUS[  0]    ***   
       TRIP_ALGORI          ITRALG         NORMAL      [  0]    ***   
       UIJ_THRESHO          IUIJTH              1               ***   
       UNITS                IUNITS         ANGSTROM    [  0]    ***   
       UNOS                 IUNOS          OFF         [  0]    ***   
       UPDATE_HESS          IHUPDT         ON          [  1]    ***   
       VIBPHASE             ISETPH         STANDARD    [  0]    ***   
       VIBRATION            IVIB           NO          [  0]    ***   
       VIB_ALGORIT          IGEALG         STANDARD    [  0]    ***   
       VNATORB              IVNORB         OFF         [  0]    ***   
       VTRAN                IVTRAN         FULL/PARTIAL[  0]    ***   
       XFIELD               IXEFLD              0             x 10-6  
       XFORM_TOL            IXFTOL          10D- 18             ***   
       YFIELD               IYEFLD              0             x 10-6  
       ZFIELD               IZEFLD              0             x 10-6  
       ZSCALE_EXP           IZEXPS         OFF         [  0]    ***   
    -------------------------------------------------------------------
   1 entries found in Z-matrix 
   Job Title : Test                                                                            
   Rotational constants (in cm-1): 

   Rotational constants (in MHz): 

********************************************************************************
   The full molecular point group is I h .
   The largest Abelian subgroup of the full molecular point group is D2h .
   The computational point group is D2h .
********************************************************************************
  ECPDATA file not present.   Using default ECPDATA. 
  @GTFLGS-W, Keyword #FROZEN_CORE not known and is ignored.
  @GTFLGS-W, Keyword #DROPMO not known and is ignored.
  @GTFLGS-W, Keyword #INPUT_MRCC not known and is ignored.
  @GTFLGS-W, Keyword #CC_PROG not known and is ignored.
  @GTFLGS-W, Keyword #SCF_DAMPING not known and is ignored.
  There are  279 basis functions.
 @GEOPT-W, Archive file not created for single-point calculation.
 @CHECKOUT-I, Total execution time (CPU/WALL):        0.21/       2.20 seconds.
--executable xjoda finished with status     0 in        2.56 seconds (walltime).
 --invoking executable--
/cvmfs/restricted.computecanada.ca/easybuild/software/2020/avx2/Compiler/intel2020/cfour/2.1/bin/xvmol
 SERIAL VERSION OF MOLECULE STARTED
********************************************************************************
                    INPUT FROM MOL FILE
********************************************************************************
INTGRL        1    0    1    0    0    0    0    0    0                         
         *** CFOUR Program System (Release V0.1) ***                            
Test                                                                            
    1    3 X  Y   Z   0.10E-08              0    0                              
   9999.00      3.00                                                            
          7.00000000    1    7    1    1    1    1    1    1    1               
N #1   0.000000000000000   0.000000000000000   0.000000000000000                
   22   13                                                                      
   432300.000000000       5.500000000000000E-006 -1.200000000000000E-006        
  0.000000000000000E+000  0.000000000000000E+000  0.000000000000000E+000        
  0.000000000000000E+000  0.000000000000000E+000  0.000000000000000E+000        
  0.000000000000000E+000  0.000000000000000E+000  0.000000000000000E+000        
  0.000000000000000E+000  0.000000000000000E+000                                
   64700.0000000000       4.350000000000000E-005 -9.500000000000001E-006        
  0.000000000000000E+000  0.000000000000000E+000  0.000000000000000E+000        
  0.000000000000000E+000  0.000000000000000E+000  0.000000000000000E+000        
  0.000000000000000E+000  0.000000000000000E+000  0.000000000000000E+000        
  0.000000000000000E+000  0.000000000000000E+000                                
   14720.0000000000       2.289000000000000E-004 -5.050000000000000E-005        
  0.000000000000000E+000  0.000000000000000E+000  0.000000000000000E+000        
  0.000000000000000E+000  0.000000000000000E+000  0.000000000000000E+000        
  0.000000000000000E+000  0.000000000000000E+000  0.000000000000000E+000        
  0.000000000000000E+000  0.000000000000000E+000                                
   4170.00000000000       9.650000000000000E-004 -2.126000000000000E-004        
  0.000000000000000E+000  0.000000000000000E+000  0.000000000000000E+000        
  0.000000000000000E+000  0.000000000000000E+000  0.000000000000000E+000        
  0.000000000000000E+000  0.000000000000000E+000  0.000000000000000E+000        
  0.000000000000000E+000  0.000000000000000E+000                                
   1361.00000000000       3.502100000000000E-003 -7.753000000000000E-004        
  0.000000000000000E+000  0.000000000000000E+000  0.000000000000000E+000        
  0.000000000000000E+000  0.000000000000000E+000  0.000000000000000E+000        
  0.000000000000000E+000  0.000000000000000E+000  0.000000000000000E+000        
  0.000000000000000E+000  0.000000000000000E+000                                
   491.200000000000       1.129210000000000E-002 -2.506200000000000E-003        
  0.000000000000000E+000  0.000000000000000E+000  0.000000000000000E+000        
  0.000000000000000E+000  0.000000000000000E+000  0.000000000000000E+000        
  0.000000000000000E+000  0.000000000000000E+000  0.000000000000000E+000        
  0.000000000000000E+000  0.000000000000000E+000                                
   191.600000000000       3.261280000000000E-002 -7.365200000000000E-003        
  0.000000000000000E+000  0.000000000000000E+000  0.000000000000000E+000        
  0.000000000000000E+000  0.000000000000000E+000  0.000000000000000E+000        
  0.000000000000000E+000  0.000000000000000E+000  0.000000000000000E+000        
  0.000000000000000E+000  0.000000000000000E+000                                
   79.4100000000000       8.329720000000000E-002 -1.930160000000000E-002        
  0.000000000000000E+000  0.000000000000000E+000  0.000000000000000E+000        
  0.000000000000000E+000  0.000000000000000E+000  0.000000000000000E+000        
  0.000000000000000E+000  0.000000000000000E+000  0.000000000000000E+000        
  0.000000000000000E+000  0.000000000000000E+000                                
   34.5300000000000       0.179985600000000      -4.471730000000000E-002        
  0.000000000000000E+000  0.000000000000000E+000  0.000000000000000E+000        
  0.000000000000000E+000  0.000000000000000E+000  0.000000000000000E+000        
  0.000000000000000E+000  0.000000000000000E+000  0.000000000000000E+000        
  0.000000000000000E+000  0.000000000000000E+000                                
   15.5800000000000       0.305003500000000      -8.606640000000000E-002        
  0.000000000000000E+000  0.000000000000000E+000  0.000000000000000E+000        
  0.000000000000000E+000  0.000000000000000E+000  0.000000000000000E+000        
  0.000000000000000E+000  0.000000000000000E+000  0.000000000000000E+000        
  0.000000000000000E+000  0.000000000000000E+000                                
   7.23200000000000       0.341159300000000      -0.133296200000000             
  0.000000000000000E+000  0.000000000000000E+000  0.000000000000000E+000        
  0.000000000000000E+000  0.000000000000000E+000  0.000000000000000E+000        
  0.000000000000000E+000  0.000000000000000E+000  0.000000000000000E+000        
  0.000000000000000E+000  0.000000000000000E+000                                
   3.38200000000000       0.000000000000000E+000  0.000000000000000E+000        
   1.00000000000000       0.000000000000000E+000  0.000000000000000E+000        
  0.000000000000000E+000  0.000000000000000E+000  0.000000000000000E+000        
  0.000000000000000E+000  0.000000000000000E+000  0.000000000000000E+000        
  0.000000000000000E+000  0.000000000000000E+000                                
   1.36900000000000       0.000000000000000E+000  0.000000000000000E+000        
  0.000000000000000E+000   1.00000000000000       0.000000000000000E+000        
  0.000000000000000E+000  0.000000000000000E+000  0.000000000000000E+000        
  0.000000000000000E+000  0.000000000000000E+000  0.000000000000000E+000        
  0.000000000000000E+000  0.000000000000000E+000                                
  0.624800000000000       0.000000000000000E+000  0.000000000000000E+000        
  0.000000000000000E+000  0.000000000000000E+000   1.00000000000000             
  0.000000000000000E+000  0.000000000000000E+000  0.000000000000000E+000        
  0.000000000000000E+000  0.000000000000000E+000  0.000000000000000E+000        
  0.000000000000000E+000  0.000000000000000E+000                                
  0.274700000000000       0.000000000000000E+000  0.000000000000000E+000        
  0.000000000000000E+000  0.000000000000000E+000  0.000000000000000E+000        
   1.00000000000000       0.000000000000000E+000  0.000000000000000E+000        
  0.000000000000000E+000  0.000000000000000E+000  0.000000000000000E+000        
  0.000000000000000E+000  0.000000000000000E+000                                
  0.119200000000000       0.000000000000000E+000  0.000000000000000E+000        
  0.000000000000000E+000  0.000000000000000E+000  0.000000000000000E+000        
  0.000000000000000E+000   1.00000000000000       0.000000000000000E+000        
  0.000000000000000E+000  0.000000000000000E+000  0.000000000000000E+000        
  0.000000000000000E+000  0.000000000000000E+000                                
   246.262000000000       0.000000000000000E+000  0.000000000000000E+000        
  0.000000000000000E+000  0.000000000000000E+000  0.000000000000000E+000        
  0.000000000000000E+000  0.000000000000000E+000   1.00000000000000             
  0.000000000000000E+000  0.000000000000000E+000  0.000000000000000E+000        
  0.000000000000000E+000  0.000000000000000E+000                                
   124.187000000000       0.000000000000000E+000  0.000000000000000E+000        
  0.000000000000000E+000  0.000000000000000E+000  0.000000000000000E+000        
  0.000000000000000E+000  0.000000000000000E+000  0.000000000000000E+000        
   1.00000000000000       0.000000000000000E+000  0.000000000000000E+000        
  0.000000000000000E+000  0.000000000000000E+000                                
   62.6260000000000       0.000000000000000E+000  0.000000000000000E+000        
  0.000000000000000E+000  0.000000000000000E+000  0.000000000000000E+000        
  0.000000000000000E+000  0.000000000000000E+000  0.000000000000000E+000        
  0.000000000000000E+000   1.00000000000000       0.000000000000000E+000        
  0.000000000000000E+000  0.000000000000000E+000                                
   31.5810000000000       0.000000000000000E+000  0.000000000000000E+000        
  0.000000000000000E+000  0.000000000000000E+000  0.000000000000000E+000        
  0.000000000000000E+000  0.000000000000000E+000  0.000000000000000E+000        
  0.000000000000000E+000  0.000000000000000E+000   1.00000000000000             
  0.000000000000000E+000  0.000000000000000E+000                                
   15.9260000000000       0.000000000000000E+000  0.000000000000000E+000        
  0.000000000000000E+000  0.000000000000000E+000  0.000000000000000E+000        
  0.000000000000000E+000  0.000000000000000E+000  0.000000000000000E+000        
  0.000000000000000E+000  0.000000000000000E+000  0.000000000000000E+000        
   1.00000000000000       0.000000000000000E+000                                
  4.714000000000000E-002  0.000000000000000E+000  0.000000000000000E+000        
  0.000000000000000E+000  0.000000000000000E+000  0.000000000000000E+000        
  0.000000000000000E+000  0.000000000000000E+000  0.000000000000000E+000        
  0.000000000000000E+000  0.000000000000000E+000  0.000000000000000E+000        
  0.000000000000000E+000   1.00000000000000                                     
   16   12                                                                      
   415.900000000000       1.484000000000000E-004  0.000000000000000E+000        
  0.000000000000000E+000  0.000000000000000E+000  0.000000000000000E+000        
  0.000000000000000E+000  0.000000000000000E+000  0.000000000000000E+000        
  0.000000000000000E+000  0.000000000000000E+000  0.000000000000000E+000        
  0.000000000000000E+000                                                        
   98.6100000000000       1.276300000000000E-003  0.000000000000000E+000        
  0.000000000000000E+000  0.000000000000000E+000  0.000000000000000E+000        
  0.000000000000000E+000  0.000000000000000E+000  0.000000000000000E+000        
  0.000000000000000E+000  0.000000000000000E+000  0.000000000000000E+000        
  0.000000000000000E+000                                                        
   31.9200000000000       6.702400000000000E-003  0.000000000000000E+000        
  0.000000000000000E+000  0.000000000000000E+000  0.000000000000000E+000        
  0.000000000000000E+000  0.000000000000000E+000  0.000000000000000E+000        
  0.000000000000000E+000  0.000000000000000E+000  0.000000000000000E+000        
  0.000000000000000E+000                                                        
   12.0000000000000       2.526170000000000E-002  0.000000000000000E+000        
  0.000000000000000E+000  0.000000000000000E+000  0.000000000000000E+000        
  0.000000000000000E+000  0.000000000000000E+000  0.000000000000000E+000        
  0.000000000000000E+000  0.000000000000000E+000  0.000000000000000E+000        
  0.000000000000000E+000                                                        
   4.91900000000000       7.518940000000000E-002  0.000000000000000E+000        
  0.000000000000000E+000  0.000000000000000E+000  0.000000000000000E+000        
  0.000000000000000E+000  0.000000000000000E+000  0.000000000000000E+000        
  0.000000000000000E+000  0.000000000000000E+000  0.000000000000000E+000        
  0.000000000000000E+000                                                        
   2.14800000000000       0.000000000000000E+000   1.00000000000000             
  0.000000000000000E+000  0.000000000000000E+000  0.000000000000000E+000        
  0.000000000000000E+000  0.000000000000000E+000  0.000000000000000E+000        
  0.000000000000000E+000  0.000000000000000E+000  0.000000000000000E+000        
  0.000000000000000E+000                                                        
  0.969600000000000       0.000000000000000E+000  0.000000000000000E+000        
   1.00000000000000       0.000000000000000E+000  0.000000000000000E+000        
  0.000000000000000E+000  0.000000000000000E+000  0.000000000000000E+000        
  0.000000000000000E+000  0.000000000000000E+000  0.000000000000000E+000        
  0.000000000000000E+000                                                        
  0.439900000000000       0.000000000000000E+000  0.000000000000000E+000        
  0.000000000000000E+000   1.00000000000000       0.000000000000000E+000        
  0.000000000000000E+000  0.000000000000000E+000  0.000000000000000E+000        
  0.000000000000000E+000  0.000000000000000E+000  0.000000000000000E+000        
  0.000000000000000E+000                                                        
  0.197800000000000       0.000000000000000E+000  0.000000000000000E+000        
  0.000000000000000E+000  0.000000000000000E+000   1.00000000000000             
  0.000000000000000E+000  0.000000000000000E+000  0.000000000000000E+000        
  0.000000000000000E+000  0.000000000000000E+000  0.000000000000000E+000        
  0.000000000000000E+000                                                        
  8.603000000000000E-002  0.000000000000000E+000  0.000000000000000E+000        
  0.000000000000000E+000  0.000000000000000E+000  0.000000000000000E+000        
   1.00000000000000       0.000000000000000E+000  0.000000000000000E+000        
  0.000000000000000E+000  0.000000000000000E+000  0.000000000000000E+000        
  0.000000000000000E+000                                                        
   270.142000000000       0.000000000000000E+000  0.000000000000000E+000        
  0.000000000000000E+000  0.000000000000000E+000  0.000000000000000E+000        
  0.000000000000000E+000   1.00000000000000       0.000000000000000E+000        
  0.000000000000000E+000  0.000000000000000E+000  0.000000000000000E+000        
  0.000000000000000E+000                                                        
   123.465000000000       0.000000000000000E+000  0.000000000000000E+000        
  0.000000000000000E+000  0.000000000000000E+000  0.000000000000000E+000        
  0.000000000000000E+000  0.000000000000000E+000   1.00000000000000             
  0.000000000000000E+000  0.000000000000000E+000  0.000000000000000E+000        
  0.000000000000000E+000                                                        
   56.4280000000000       0.000000000000000E+000  0.000000000000000E+000        
  0.000000000000000E+000  0.000000000000000E+000  0.000000000000000E+000        
  0.000000000000000E+000  0.000000000000000E+000  0.000000000000000E+000        
   1.00000000000000       0.000000000000000E+000  0.000000000000000E+000        
  0.000000000000000E+000                                                        
   25.7900000000000       0.000000000000000E+000  0.000000000000000E+000        
  0.000000000000000E+000  0.000000000000000E+000  0.000000000000000E+000        
  0.000000000000000E+000  0.000000000000000E+000  0.000000000000000E+000        
  0.000000000000000E+000   1.00000000000000       0.000000000000000E+000        
  0.000000000000000E+000                                                        
   11.7870000000000       0.000000000000000E+000  0.000000000000000E+000        
  0.000000000000000E+000  0.000000000000000E+000  0.000000000000000E+000        
  0.000000000000000E+000  0.000000000000000E+000  0.000000000000000E+000        
  0.000000000000000E+000  0.000000000000000E+000   1.00000000000000             
  0.000000000000000E+000                                                        
  3.150000000000000E-002  0.000000000000000E+000  0.000000000000000E+000        
  0.000000000000000E+000  0.000000000000000E+000  0.000000000000000E+000        
  0.000000000000000E+000  0.000000000000000E+000  0.000000000000000E+000        
  0.000000000000000E+000  0.000000000000000E+000  0.000000000000000E+000        
   1.00000000000000                                                             
   10   10                                                                      
   6.71700000000000        1.00000000000000       0.000000000000000E+000        
  0.000000000000000E+000  0.000000000000000E+000  0.000000000000000E+000        
  0.000000000000000E+000  0.000000000000000E+000  0.000000000000000E+000        
  0.000000000000000E+000  0.000000000000000E+000                                
   2.89600000000000       0.000000000000000E+000   1.00000000000000             
  0.000000000000000E+000  0.000000000000000E+000  0.000000000000000E+000        
  0.000000000000000E+000  0.000000000000000E+000  0.000000000000000E+000        
  0.000000000000000E+000  0.000000000000000E+000                                
   1.24900000000000       0.000000000000000E+000  0.000000000000000E+000        
   1.00000000000000       0.000000000000000E+000  0.000000000000000E+000        
  0.000000000000000E+000  0.000000000000000E+000  0.000000000000000E+000        
  0.000000000000000E+000  0.000000000000000E+000                                
  0.538000000000000       0.000000000000000E+000  0.000000000000000E+000        
  0.000000000000000E+000   1.00000000000000       0.000000000000000E+000        
  0.000000000000000E+000  0.000000000000000E+000  0.000000000000000E+000        
  0.000000000000000E+000  0.000000000000000E+000                                
  0.232000000000000       0.000000000000000E+000  0.000000000000000E+000        
  0.000000000000000E+000  0.000000000000000E+000   1.00000000000000             
  0.000000000000000E+000  0.000000000000000E+000  0.000000000000000E+000        
  0.000000000000000E+000  0.000000000000000E+000                                
   199.920000000000       0.000000000000000E+000  0.000000000000000E+000        
  0.000000000000000E+000  0.000000000000000E+000  0.000000000000000E+000        
   1.00000000000000       0.000000000000000E+000  0.000000000000000E+000        
  0.000000000000000E+000  0.000000000000000E+000                                
   87.1110000000000       0.000000000000000E+000  0.000000000000000E+000        
  0.000000000000000E+000  0.000000000000000E+000  0.000000000000000E+000        
  0.000000000000000E+000   1.00000000000000       0.000000000000000E+000        
  0.000000000000000E+000  0.000000000000000E+000                                
   37.9570000000000       0.000000000000000E+000  0.000000000000000E+000        
  0.000000000000000E+000  0.000000000000000E+000  0.000000000000000E+000        
  0.000000000000000E+000  0.000000000000000E+000   1.00000000000000             
  0.000000000000000E+000  0.000000000000000E+000                                
   16.5390000000000       0.000000000000000E+000  0.000000000000000E+000        
  0.000000000000000E+000  0.000000000000000E+000  0.000000000000000E+000        
  0.000000000000000E+000  0.000000000000000E+000  0.000000000000000E+000        
   1.00000000000000       0.000000000000000E+000                                
  8.740000000000001E-002  0.000000000000000E+000  0.000000000000000E+000        
  0.000000000000000E+000  0.000000000000000E+000  0.000000000000000E+000        
  0.000000000000000E+000  0.000000000000000E+000  0.000000000000000E+000        
  0.000000000000000E+000   1.00000000000000                                     
    8    8                                                                      
   3.82900000000000        1.00000000000000       0.000000000000000E+000        
  0.000000000000000E+000  0.000000000000000E+000  0.000000000000000E+000        
  0.000000000000000E+000  0.000000000000000E+000  0.000000000000000E+000        
   1.79500000000000       0.000000000000000E+000   1.00000000000000             
  0.000000000000000E+000  0.000000000000000E+000  0.000000000000000E+000        
  0.000000000000000E+000  0.000000000000000E+000  0.000000000000000E+000        
  0.841000000000000       0.000000000000000E+000  0.000000000000000E+000        
   1.00000000000000       0.000000000000000E+000  0.000000000000000E+000        
  0.000000000000000E+000  0.000000000000000E+000  0.000000000000000E+000        
  0.394000000000000       0.000000000000000E+000  0.000000000000000E+000        
  0.000000000000000E+000   1.00000000000000       0.000000000000000E+000        
  0.000000000000000E+000  0.000000000000000E+000  0.000000000000000E+000        
   105.346000000000       0.000000000000000E+000  0.000000000000000E+000        
  0.000000000000000E+000  0.000000000000000E+000   1.00000000000000             
  0.000000000000000E+000  0.000000000000000E+000  0.000000000000000E+000        
   37.5300000000000       0.000000000000000E+000  0.000000000000000E+000        
  0.000000000000000E+000  0.000000000000000E+000  0.000000000000000E+000        
   1.00000000000000       0.000000000000000E+000  0.000000000000000E+000        
   13.3700000000000       0.000000000000000E+000  0.000000000000000E+000        
  0.000000000000000E+000  0.000000000000000E+000  0.000000000000000E+000        
  0.000000000000000E+000   1.00000000000000       0.000000000000000E+000        
  0.151000000000000       0.000000000000000E+000  0.000000000000000E+000        
  0.000000000000000E+000  0.000000000000000E+000  0.000000000000000E+000        
  0.000000000000000E+000  0.000000000000000E+000   1.00000000000000             
    6    6                                                                      
   3.85600000000000        1.00000000000000       0.000000000000000E+000        
  0.000000000000000E+000  0.000000000000000E+000  0.000000000000000E+000        
  0.000000000000000E+000                                                        
   1.70200000000000       0.000000000000000E+000   1.00000000000000             
  0.000000000000000E+000  0.000000000000000E+000  0.000000000000000E+000        
  0.000000000000000E+000                                                        
  0.751000000000000       0.000000000000000E+000  0.000000000000000E+000        
   1.00000000000000       0.000000000000000E+000  0.000000000000000E+000        
  0.000000000000000E+000                                                        
   67.1880000000000       0.000000000000000E+000  0.000000000000000E+000        
  0.000000000000000E+000   1.00000000000000       0.000000000000000E+000        
  0.000000000000000E+000                                                        
   20.3600000000000       0.000000000000000E+000  0.000000000000000E+000        
  0.000000000000000E+000  0.000000000000000E+000   1.00000000000000             
  0.000000000000000E+000                                                        
  0.326000000000000       0.000000000000000E+000  0.000000000000000E+000        
  0.000000000000000E+000  0.000000000000000E+000  0.000000000000000E+000        
   1.00000000000000                                                             
    4    4                                                                      
   2.87500000000000        1.00000000000000       0.000000000000000E+000        
  0.000000000000000E+000  0.000000000000000E+000                                
   1.17000000000000       0.000000000000000E+000   1.00000000000000             
  0.000000000000000E+000  0.000000000000000E+000                                
   52.0500000000000       0.000000000000000E+000  0.000000000000000E+000        
   1.00000000000000       0.000000000000000E+000                                
  0.587000000000000       0.000000000000000E+000  0.000000000000000E+000        
  0.000000000000000E+000   1.00000000000000                                     
    2    2                                                                      
   2.09900000000000        1.00000000000000       0.000000000000000E+000        
   1.04100000000000       0.000000000000000E+000   1.00000000000000             
FINISH                                                                          
 
********************************************************************************
 ONE- AND TWO-ELECTRON INTEGRALS OVER SYMMETRY-ADAPTED AOS ARE CALCULATED.

  SPHERICAL HARMONICS ARE USED.
  
  INTEGRALS LESS THAN  0.10E-13 ARE NEGLECTED.

   BASIS FUNCTION NOT NORMALIZED: 
   CENTER (AS ORDERED IN MOL FILE):   1
   ANGULAR MOMENTUM TYPE          : S
   OFFSET WITHIN ANGULAR MOMENTUM :  1
   <CHI|CHI>                      :    1.1714440624
   BASIS FUNCTION NOT NORMALIZED: 
   CENTER (AS ORDERED IN MOL FILE):   1
   ANGULAR MOMENTUM TYPE          : S
   OFFSET WITHIN ANGULAR MOMENTUM :  2
   <CHI|CHI>                      :    3.7623155081
   BASIS FUNCTION NOT NORMALIZED: 
   CENTER (AS ORDERED IN MOL FILE):   1
   ANGULAR MOMENTUM TYPE          : P
   OFFSET WITHIN ANGULAR MOMENTUM :  1
   <CHI|CHI>                      :    9.9907394657
  NUCLEAR REPULSION ENERGY :    0.0000000000 A.U.
  @MOLECU-I, ONE ELECTRON INTEGRALS (CPU/WALL):        0.19/       0.19 SECONDS.
  @TWOEL-I,    1840768 INTEGRALS OF SYMMETRY TYPE  I I I I
  @TWOEL-I,   17046861 INTEGRALS OF SYMMETRY TYPE  I J I J
  @TWOEL-I,    9616124 INTEGRALS OF SYMMETRY TYPE  I I J J
  @TWOEL-I,   42389562 INTEGRALS OF SYMMETRY TYPE  I J K L
  @TWOEL-I, TOTAL NUMBER OF 2-E INTEGRALS   70893315.
  @MOLECU-I, TWO ELECTRON INTEGRALS (CPU/WALL):      231.98/     232.87 SECONDS.
 @CHECKOUT-I, Total execution time (CPU/WALL):      232.21/     233.18 seconds.

OMP_NUM_THREADS not specified; defaulting to 1
Running with 1 threads/proc

--executable xvmol finished with status     0 in      233.22 seconds (walltime).
 --invoking executable--
/cvmfs/restricted.computecanada.ca/easybuild/software/2020/avx2/Compiler/intel2020/cfour/2.1/bin/xvmol2ja
 @GETMEM-I,  Allocated   19073 MB of main memory.
 @CHECKOUT-I, Total execution time (CPU/WALL):        0.14/       0.09 seconds.
--executable xvmol2ja finished with status     0 in        0.13 seconds (walltime).
 --invoking executable--
/cvmfs/restricted.computecanada.ca/easybuild/software/2020/avx2/Compiler/intel2020/cfour/2.1/bin/xvscf
  There are  279 functions in the AO basis.

  There are 8 irreducible representations.

       Irrep        # of functions
         1                 59
         2                 40
         3                 40
         4                 28
         5                 40
         6                 28
         7                 28
         8                 16


  Parameters for SCF calculation: 
        SCF reference function: ROHF  
  Maximum number of iterations: 9999
     Full symmetry point group: I h 
     Computational point group: D2h 
        Initial density matrix: MOREAD                 
     SCF convergence tolerance: 10**(-10)
  DIIS convergence acceleration:  ON
          Latest start for DIIS:   5
                     DIIS order:   6

     Alpha population by irrep:   2    1    0    0    0    0    0    0
      Beta population by irrep:   2    0    0    0    0    0    0    0


  Memory information:    5506270 words required.
  Fock matrices are constructed from AO integral file.
 @GETMEM-I,  Allocated      42 MB of main memory.
  Initialization and symmetry analysis required      0.003 seconds.

 total no. of electrons in initial guess :  0.000000000000000E+000
 total no. of electrons in initial guess :  0.000000000000000E+000
  --------------------------------------------------------------------
  Iteration         Total Energy            Largest Density Difference
  --------------------------------------------------------------------
       0             0.000000000000000              0.0000000000D+00
   current occupation vector 
     2  1  0  0  0  0  0  0
     2  0  0  0  0  0  0  0
       1           -51.033941274274049              0.9411126112D+00
   current occupation vector 
     2  1  0  0  0  0  0  0
     2  0  0  0  0  0  0  0
       2           -52.774578517521199              0.4855312368D+00
   current occupation vector 
     2  1  0  0  0  0  0  0
     2  0  0  0  0  0  0  0
       3           -52.815020045399997              0.4961339209D-01
   current occupation vector 
     2  1  0  0  0  0  0  0
     2  0  0  0  0  0  0  0
       4           -52.815815924415347              0.8647510569D-02
   current occupation vector 
     2  1  0  0  0  0  0  0
     2  0  0  0  0  0  0  0
       5           -52.815840603213466              0.2391070061D-02
   current occupation vector 
     2  1  0  0  0  0  0  0
     2  0  0  0  0  0  0  0
       6           -52.815841126734711              0.3600592086D-03
   current occupation vector 
     2  1  0  0  0  0  0  0
     2  0  0  0  0  0  0  0
       7           -52.815841134694672              0.3338594040D-04
   current occupation vector 
     2  1  0  0  0  0  0  0
     2  0  0  0  0  0  0  0
       8           -52.815841134816587              0.7428583097D-05
   current occupation vector 
     2  1  0  0  0  0  0  0
     2  0  0  0  0  0  0  0
       9           -52.815841134818591              0.1152075335D-05
   current occupation vector 
     2  1  0  0  0  0  0  0
     2  0  0  0  0  0  0  0
      10           -52.815841134818662              0.6112258834D-07
   current occupation vector 
     2  1  0  0  0  0  0  0
     2  0  0  0  0  0  0  0
      11           -52.815841134818690              0.3390813408D-08
   current occupation vector 
     2  1  0  0  0  0  0  0
     2  0  0  0  0  0  0  0
      12           -52.815841134818761              0.3952889127D-09
   current occupation vector 
     2  1  0  0  0  0  0  0
     2  0  0  0  0  0  0  0

  SCF has converged.

 Density matrix saved to file den.dat
 total alpha spin electron number:   3.00000000000002     
 total  beta spin electron number:   2.00000000000002     
     E(ROHF)=       -52.815841134818953              0.5020361904D-10

  Eigenvector printing suppressed.


       The average multiplicity is    2.0000000
  The expectation value of S**2 is    0.7500000

 @PUTMOS-I, Writing converged MOs to NEWMOS. 
 @PUTMOS-I, Symmetry   1 Full Blocks 14 Partial Blocksize   3
 @PUTMOS-I, Symmetry   2 Full Blocks 10 Partial Blocksize   0
 @PUTMOS-I, Symmetry   3 Full Blocks 10 Partial Blocksize   0
 @PUTMOS-I, Symmetry   4 Full Blocks  7 Partial Blocksize   0
 @PUTMOS-I, Symmetry   5 Full Blocks 10 Partial Blocksize   0
 @PUTMOS-I, Symmetry   6 Full Blocks  7 Partial Blocksize   0
 @PUTMOS-I, Symmetry   7 Full Blocks  7 Partial Blocksize   0
 @PUTMOS-I, Symmetry   8 Full Blocks  4 Partial Blocksize   0
 @PUTFOCK-I, Writing converged Fock matrix to NEWFOCK. 
 @PUTFOCK-I, Symmetry   1 Full Blocks 14 Partial Blocksize   3
 @PUTFOCK-I, Symmetry   2 Full Blocks 10 Partial Blocksize   0
 @PUTFOCK-I, Symmetry   3 Full Blocks 10 Partial Blocksize   0
 @PUTFOCK-I, Symmetry   4 Full Blocks  7 Partial Blocksize   0
 @PUTFOCK-I, Symmetry   5 Full Blocks 10 Partial Blocksize   0
 @PUTFOCK-I, Symmetry   6 Full Blocks  7 Partial Blocksize   0
 @PUTFOCK-I, Symmetry   7 Full Blocks  7 Partial Blocksize   0
 @PUTFOCK-I, Symmetry   8 Full Blocks  4 Partial Blocksize   0
  @DMPJOB-I, Rotating orbitals to semicanonical basis.
             *** Eigenvalues correspond to new basis. ***

  @PRJDEN-I, Basis set contains h and/or higher angular momentum functions.
             Analysis of density matrix symmetry not available.
             Check irreps of the molecular orbitals in the full point group
             for presence of an asymmetric solution.

 
  ORBITAL EIGENVALUES (ALPHA)  (1H = 27.2113834 eV)

       MO #        E(hartree)               E(eV)           FULLSYM    COMPSYM
       ----   --------------------   --------------------   -------   ---------
    1     1         -17.1399412207        -466.4015120111      Ag        Ag (1)
    2     2          -2.1529677432         -58.5852307080      Ag        Ag (1)
    3    60          -1.7557474672         -47.7763174825      Au       B2u (2)
  +++++++++++++++++++++++++++++++++++++++++++++++++++++++++++++++++++++++++++++
    4   100          -1.0384932289         -28.2588374090       u       B3u (3)
    5   168          -1.0384932289         -28.2588374090       u       B1u (5)
    6     3          -0.3987130036         -10.8495324088      Ag        Ag (1)
    7    61          -0.3168545051          -8.6220494205      Au       B2u (2)
    8   169          -0.3067356632          -8.3467017345       u       B1u (5)
    9   101          -0.3067356632          -8.3467017345       u       B3u (3)
   10   236          -0.2156129205          -5.8671258451       g       B2g (7)
   11     4          -0.2156129205          -5.8671258451       g        Ag (1)
   12   140          -0.2133796697          -5.8063560021       g       B1g (4)
   13   208          -0.2133796697          -5.8063560021       g       B3g (6)
   14     5          -0.2125286003          -5.7831972253      Ag        Ag (1)
   15    62          -0.1383569492          -3.7648839915      Au       B2u (2)
   16   170          -0.1311220014          -3.5680110512       u       B1u (5)
   17   102          -0.1311220014          -3.5680110512       u       B3u (3)
   18     6          -0.1029419399          -2.8011925955      Ag        Ag (1)
   19   171           0.0929742520           2.5299580171       u       B1u (5)
   20   103           0.0929742520           2.5299580171       u       B3u (3)
   21    63           0.0971166716           2.6426789860       u       B2u (2)
   22   264           0.0971166716           2.6426789860       u        Au (8)
   23   104           0.0996321074           2.7111274746       u       B3u (3)
   24   172           0.0996321074           2.7111274746       u       B1u (5)
   25    64           0.1004764653           2.7341036206      Au       B2u (2)
   26     7           0.1413555817           3.8464809301      Ag        Ag (1)
   27   209           0.1420590236           3.8656225577       g       B3g (6)
   28   141           0.1420590236           3.8656225577       g       B1g (4)
   29   237           0.1446837279           3.9370443909       g       B2g (7)
   30     8           0.1446837279           3.9370443909       g        Ag (1)
   31    65           0.2568622040           6.9895759131      Au       B2u (2)
   32   173           0.2789651029           7.5910263715       u       B1u (5)
   33   105           0.2789651029           7.5910263715       u       B3u (3)
   34     9           0.7423195777          20.1995426341      Ag        Ag (1)
   35    10           0.9579260580          26.0664932324       g        Ag (1)
   36   238           0.9579260580          26.0664932324       g       B2g (7)
   37   210           0.9644847952          26.2449655462       g       B3g (6)
   38   142           0.9644847952          26.2449655462       g       B1g (4)
   39    11           0.9691900742          26.3730026956       g        Ag (1)
   40   239           0.9691900742          26.3730026957       g       B2g (7)
   41   143           0.9720154714          26.4498856638       g       B1g (4)
   42   211           0.9720154714          26.4498856638       g       B3g (6)
   43    12           0.9729570503          26.4755073272      Ag        Ag (1)
   44   174           1.0348436039          28.1595260645       u       B1u (5)
   45   106           1.0348436039          28.1595260645       u       B3u (3)
   46   265           1.0441756164          28.4134630336       u        Au (8)
   47    66           1.0441756164          28.4134630336       u       B2u (2)
   48   107           1.0497916405          28.5662828206       u       B3u (3)
   49   175           1.0497916405          28.5662828206       u       B1u (5)
   50    67           1.0516687012          28.6173602387      Au       B2u (2)
   51    13           1.1212482384          30.5107157014      Ag        Ag (1)
   52   212           1.1242561828          30.5925660307       g       B3g (6)
   53   144           1.1242561828          30.5925660307       g       B1g (4)
   54    14           1.1344493221          30.8699354509       g        Ag (1)
   55   240           1.1344493221          30.8699354509       g       B2g (7)
   56    68           1.5176086687          41.2962313348      Au       B2u (2)
   57   108           1.5437611396          42.0078762476       u       B3u (3)
   58   176           1.5437611396          42.0078762476       u       B1u (5)
   59   109           2.6432755471          71.9271843453       u       B3u (3)
   60   177           2.6432755471          71.9271843453       u       B1u (5)
   61    69           2.6523351149          72.1737077162               B2u (2)
   62   266           2.6523351149          72.1737077162                Au (8)
   63   110           2.6594119907          72.3662792974       u       B3u (3)
   64   178           2.6594119907          72.3662792974       u       B1u (5)
   65    70           2.6644834659          72.5042811533       u       B2u (2)
   66   267           2.6644834659          72.5042811533       u        Au (8)
   67   111           2.6675330351          72.5872641504       u       B3u (3)
   68   179           2.6675330351          72.5872641504       u       B1u (5)
   69    71           2.6685506780          72.6149556216      Au       B2u (2)
   70   180           3.2241897674          87.7346639163       u       B1u (5)
   71   112           3.2241897674          87.7346639163       u       B3u (3)
   72    72           3.2392349670          88.1440646103       u       B2u (2)
   73   268           3.2392349670          88.1440646103       u        Au (8)
   74   181           3.2482597507          88.3896414595       u       B1u (5)
   75   113           3.2482597507          88.3896414595       u       B3u (3)
   76    73           3.2512690437          88.4715284846      Au       B2u (2)
   77   241           3.4021336831          92.5767640285       g        Ag (7)
   78    15           3.4021336831          92.5767640285       g       B2g (1)
   79   213           3.4172840394          92.9890261834       g       B3g (6)
   80   145           3.4172840394          92.9890261834       g       B1g (4)
   81   242           3.4280538907          93.2820887354       g       B2g (7)
   82    16           3.4280538907          93.2820887354       g        Ag (1)
   83   214           3.4344754558          93.4568284050       g       B3g (6)
   84   146           3.4344754558          93.4568284050       g       B1g (4)
   85    17           3.4366053473          93.5147856988      Ag        Ag (1)
   86    18           3.5259203402          95.9451702140      Ag        Ag (1)
   87   215           3.6520472202          99.3772571043       g       B3g (6)
   88   147           3.6520472202          99.3772571043       g       B1g (4)
   89    19           3.6522009703          99.3814408569      Ag        Ag (1)
   90   243           3.6539489414          99.4290055671       g       B2g (7)
   91    20           3.6539489414          99.4290055671       g        Ag (1)
   92    74           4.8561068921         132.1413864733      Au       B2u (2)
   93   114           4.8562070338         132.1441114659       u       B3u (3)
   94   182           4.8562070338         132.1441114659       u       B1u (5)
   95   244           6.2381997893         169.7500461914    XXXX      XXXX (7)
   96    21           6.2381997893         169.7500461914    XXXX      XXXX (1)
   97   148           6.2513223699         170.1071297648    XXXX      XXXX (4)
   98   216           6.2513223699         170.1071297648    XXXX      XXXX (6)
   99   245           6.2620960408         170.4002962538       g       B2g (7)
  100    22           6.2620960408         170.4002962538       g        Ag (1)
  101   217           6.2704988094         170.6289472115       g       B3g (6)
  102   149           6.2704988094         170.6289472115       g       B1g (4)
  103   246           6.2765133324         170.7926107025       g       B2g (7)
  104    23           6.2765133324         170.7926107025       g        Ag (1)
  105   218           6.2801270910         170.8909460733       g       B3g (6)
  106   150           6.2801270910         170.8909460733       g       B1g (4)
  107    24           6.2813325207         170.9237474828      Ag        Ag (1)
  108   115           7.2962039828         198.5398039395       u       B3u (3)
  109   183           7.2962039828         198.5398039395       u       B1u (5)
  110    75           7.3153029646         199.0595136577               B2u (2)
  111   269           7.3153029646         199.0595136577                Au (8)
  112   116           7.3302114164         199.4651932552       u       B3u (3)
  113   184           7.3302114164         199.4651932552       u       B1u (5)
  114    76           7.3408892156         199.7557509417       u       B2u (2)
  115   270           7.3408892156         199.7557509417       u        Au (8)
  116   185           7.3473074971         199.9304012600       u       B1u (5)
  117   117           7.3473074971         199.9304012600       u       B3u (3)
  118    77           7.3494488618         199.9886707571      Au       B2u (2)
  119   186           8.0933363160         220.2308774789       u       B1u (5)
  120   118           8.0933363160         220.2308774789       u       B3u (3)
  121    78           8.1186024386         220.9184036280       u       B2u (2)
  122   271           8.1186024386         220.9184036280       u        Au (8)
  123   187           8.1337725006         221.3312020009       u       B1u (5)
  124   119           8.1337725006         221.3312020009       u       B3u (3)
  125    79           8.1388317923         221.4688723272      Au       B2u (2)
  126   247           8.9927187127         244.7043167007       g       B2g (7)
  127    25           8.9927187127         244.7043167007       g        Ag (1)
  128   219           9.0188964580         245.4166493644       g       B3g (6)
  129   151           9.0188964580         245.4166493644       g       B1g (4)
  130   248           9.0375510523         245.9242666814       g       B2g (7)
  131    26           9.0375510523         245.9242666814       g        Ag (1)
  132   152           9.0487242878         246.2283058750       g       B1g (4)
  133   220           9.0487242878         246.2283058750       g       B3g (6)
  134    27           9.0524452912         246.3295595270      Ag        Ag (1)
  135   249           9.9094496837         269.6498346263       g       B2g (7)
  136    28           9.9094496837         269.6498346263       g        Ag (1)
  137   153           9.9307226945         270.2287026800       g       B1g (4)
  138   221           9.9307226945         270.2287026800       g       B3g (6)
  139    29           9.9379138668         270.4243844264      Ag        Ag (1)
  140    30          11.7373914885         319.3906599089      Ag        Ag (1)
  141   120          13.2253849226         359.8810197405       u       B3u (3)
  142   188          13.2253849226         359.8810197405       u       B1u (5)
  143    80          13.2588773929         360.7923961922      Au       B2u (2)
  144   250          16.0732481738         437.3753185404    XXXX      XXXX (7)
  145    31          16.0732481738         437.3753185404    XXXX      XXXX (1)
  146   154          16.0975791043         438.0373968188    XXXX      XXXX (4)
  147   222          16.0975791043         438.0373968188    XXXX      XXXX (6)
  148    32          16.1175400051         438.5805605426       g        Ag (1)
  149   251          16.1175400051         438.5805605426       g       B2g (7)
  150   223          16.1330988084         439.0039371052       g       B3g (6)
  151   155          16.1330988084         439.0039371052       g       B1g (4)
  152    33          16.1442303542         439.3068418669       g        Ag (1)
  153   252          16.1442303542         439.3068418669       g       B2g (7)
  154   224          16.1509165519         439.4887825547       g       B3g (6)
  155   156          16.1509165519         439.4887825547       g       B1g (4)
  156    34          16.1531464986         439.5494624888      Ag        Ag (1)
  157   121          18.8945828978         514.1477394139       u       B3u (3)
  158   189          18.8945828978         514.1477394139       u       B1u (5)
  159   272          18.9252758618         514.9829374263                Au (8)
  160    81          18.9252758618         514.9829374263               B2u (2)
  161   122          18.9491477411         515.6325242861       u       B3u (3)
  162   190          18.9491477411         515.6325242861       u       B1u (5)
  163    82          18.9662053708         516.0966859871       u       B2u (2)
  164   273          18.9662053708         516.0966859871       u        Au (8)
  165   123          18.9764438996         516.3752905213       u       B3u (3)
  166   191          18.9764438996         516.3752905213       u       B1u (5)
  167    83          18.9798575231         516.4681799388      Au       B2u (2)
  168   192          19.2884594370         524.8656649361       u       B1u (5)
  169   124          19.2884594370         524.8656649361       u       B3u (3)
  170   274          19.3238349060         525.8282803865       u        Au (8)
  171    84          19.3238349060         525.8282803865       u       B2u (2)
  172   193          19.3451027548         526.4070079739       u       B1u (5)
  173   125          19.3451027548         526.4070079739       u       B3u (3)
  174    85          19.3521992866         526.6001144207      Au       B2u (2)
  175   253          22.4854210100         611.8594120145       g       B2g (7)
  176    35          22.4854210100         611.8594120145       g        Ag (1)
  177   157          22.5204399112         612.8123247606       g       B1g (4)
  178   225          22.5204399112         612.8123247606       g       B3g (6)
  179   254          22.5454814103         613.4937385925       g       B2g (7)
  180    36          22.5454814103         613.4937385925       g        Ag (1)
  181   158          22.5605174585         613.9028902648       g       B1g (4)
  182   226          22.5605174585         613.9028902648       g       B3g (6)
  183    37          22.5655313297         614.0393246366      Ag        Ag (1)
  184   255          25.3929889478         690.9783579301       g       B2g (7)
  185    38          25.3929889478         690.9783579301       g        Ag (1)
  186   159          25.4312993159         692.0208360458       g       B1g (4)
  187   227          25.4312993159         692.0208360458       g       B3g (6)
  188    39          25.4441033188         692.3692506758      Ag        Ag (1)
  189    40          33.3773482005         908.2438187591      Ag        Ag (1)
  190   126          34.4380529025         937.1070610800       u       B3u (3)
  191   194          34.4380529025         937.1070610800       u       B1u (5)
  192    86          34.4877518397         938.4594379152      Au       B2u (2)
  193   195          57.5725923359        1566.6298833830       u       B1u (5)
  194   127          57.5725923359        1566.6298833830       u       B3u (3)
  195    87          57.6067222981        1567.5586068714       u       B2u (2)
  196   275          57.6067222981        1567.5586068714       u        Au (8)
  197   196          57.6272045835        1568.1159581918       u       B1u (5)
  198   128          57.6272045835        1568.1159581918       u       B3u (3)
  199    88          57.6340327432        1568.3017618645      Au       B2u (2)
  200   256          64.5104301676        1755.4180485896       g       B2g (7)
  201    41          64.5104301676        1755.4180485896       g        Ag (1)
  202   160          64.5493854699        1756.4780762559       g       B1g (4)
  203   228          64.5493854699        1756.4780762559       g       B3g (6)
  204    42          64.5623681026        1756.8313516508      Ag        Ag (1)
  205    43          84.2878234782        2293.5882806156      Ag        Ag (1)
  206   129          85.9819737870        2339.6884542081       u       B3u (3)
  207   197          85.9819737871        2339.6884542082       u       B1u (5)
  208    89          86.0283482855        2340.9503684668      Au       B2u (2)
  209   257         101.5559404901        2763.4776332233       g       B2g (7)
  210    44         101.5559404901        2763.4776332233       g        Ag (1)
  211   229         101.5837583455        2764.2345955511       g       B3g (6)
  212   161         101.5837583455        2764.2345955511       g       B1g (4)
  213   258         101.6036350753        2764.7754688690       g       B2g (7)
  214    45         101.6036350753        2764.7754688690       g        Ag (1)
  215   162         101.6155638481        2765.1000672766       g       B1g (4)
  216   230         101.6155638481        2765.1000672766       g       B3g (6)
  217    46         101.6195405616        2765.2082791527      Ag        Ag (1)
  218   259         160.2452004340        4360.4935870193       g       B2g (7)
  219    47         160.2452004340        4360.4935870193       g        Ag (1)
  220   163         160.2746263705        4361.2943074600       g       B1g (4)
  221   231         160.2746263705        4361.2943074600       g       B3g (6)
  222    48         160.2844276518        4361.5610138827      Ag        Ag (1)
  223   130         175.1425678375        4765.8715630861       u       B3u (3)
  224   198         175.1425678375        4765.8715630861       u       B1u (5)
  225    90         175.1657629378        4766.5027338536       u       B2u (2)
  226   276         175.1657629378        4766.5027338536       u        Au (8)
  227   199         175.1796776992        4766.8813737612       u       B1u (5)
  228   131         175.1796776992        4766.8813737612       u       B3u (3)
  229    91         175.1843155753        4767.0075767870      Au       B2u (2)
  230    49         195.5819407237        5322.0551751494      Ag        Ag (1)
  231   132         206.0015326653        5605.5866863441       u       B3u (3)
  232   200         206.0015326653        5605.5866863441       u       B1u (5)
  233    92         206.0352304089        5606.5036485638      Au       B2u (2)
  234   201         319.1007628422        8683.1732009321       u       B1u (5)
  235   133         319.1007628422        8683.1732009321       u       B3u (3)
  236   277         319.1168642535        8683.6113426086                Au (8)
  237    93         319.1168642535        8683.6113426086               B2u (2)
  238   202         319.1293886233        8683.9521480371       u       B1u (5)
  239   134         319.1293886233        8683.9521480371       u       B3u (3)
  240   278         319.1383351643        8684.1955957939       u        Au (8)
  241    94         319.1383351643        8684.1955957940       u       B2u (2)
  242   203         319.1437033140        8684.3416705720       u       B1u (5)
  243   135         319.1437033140        8684.3416705721       u       B3u (3)
  244    95         319.1454927347        8684.3903631855      Au       B2u (2)
  245    50         372.9134367967       10147.4905036867       g        Ag (1)
  246   260         372.9134367967       10147.4905036868       g       B2g (7)
  247   232         372.9277342796       10147.8795579762       g       B3g (6)
  248   164         372.9277342796       10147.8795579762       g       B1g (4)
  249   261         372.9379470900       10148.1574626761       g       B2g (7)
  250    51         372.9379470900       10148.1574626761       g        Ag (1)
  251   233         372.9440749057       10148.3242090183       g       B3g (6)
  252   165         372.9440749057       10148.3242090183       g       B1g (4)
  253    52         372.9461175326       10148.3797917205      Ag        Ag (1)
  254    53         392.2289029197       10673.0910579095       g        Ag (1)
  255   262         392.2289029197       10673.0910579095       g       B2g (7)
  256   166         392.2469135393       10673.5811517857       g       B1g (4)
  257   234         392.2469135393       10673.5811517857       g       B3g (6)
  258    54         392.2529132149       10673.7444112582      Ag        Ag (1)
  259    55         436.7115130525       11883.5244168663      Ag        Ag (1)
  260   136         487.8124458563       13274.0514914881       u       B3u (3)
  261   204         487.8124458563       13274.0514914883       u       B1u (5)
  262    96         487.8327051146       13274.6027739317      Au       B2u (2)
  263   205         530.2509810579       14428.8627437940       u       B1u (5)
  264   137         530.2509810579       14428.8627437940       u       B3u (3)
  265   279         530.2623739504       14429.1727601580       u        Au (8)
  266    97         530.2623739504       14429.1727601581       u       B2u (2)
  267   138         530.2692109175       14429.3588034923       u       B3u (3)
  268   206         530.2692109175       14429.3588034924       u       B1u (5)
  269    98         530.2714901125       14429.4208235416      Au       B2u (2)
  270    56         981.0452661939       26695.5988711578      Ag        Ag (1)
  271   263         982.6207153913       26738.4690232959       g       B2g (7)
  272    57         982.6207153913       26738.4690232959       g        Ag (1)
  273   167         982.6294784622       26738.7074785770       g       B1g (4)
  274   235         982.6294784622       26738.7074785771       g       B3g (6)
  275    58         982.6324357644       26738.7879508622      Ag        Ag (1)
  276   139        1179.6236690749       32099.1919269107       u       B3u (3)
  277   207        1179.6236690749       32099.1919269108       u       B1u (5)
  278    99        1179.6334833222       32099.4589861569      Au       B2u (2)
  279    59        3154.3445871062       85834.0799354608      Ag        Ag (1)


 
  ORBITAL EIGENVALUES ( BETA)  (1H = 27.2113834 eV)

       MO #        E(hartree)               E(eV)           FULLSYM    COMPSYM
       ----   --------------------   --------------------   -------   ---------
    1     1         -17.0956299046        -465.1957397999      Ag        Ag (1)
    2     2          -1.9910753898         -54.1799158089      Ag        Ag (1)
  +++++++++++++++++++++++++++++++++++++++++++++++++++++++++++++++++++++++++++++
    3   100          -0.9972106945         -27.1354825398       u       B3u (3)
    4   168          -0.9972106945         -27.1354825398       u       B1u (5)
    5    60          -0.9153045841         -24.9067039649      Au       B2u (2)
    6     3          -0.3919843615         -10.6664367463      Ag        Ag (1)
    7   101          -0.3040069796          -8.2724504780       u       B3u (3)
    8   169          -0.3040069796          -8.2724504780       u       B1u (5)
    9    61          -0.2926450061          -7.9632754621      Au       B2u (2)
   10   236          -0.2147409926          -5.8433994823       g       B2g (7)
   11     4          -0.2147409926          -5.8433994823       g        Ag (1)
   12   208          -0.2070856071          -5.6350858515       g       B3g (6)
   13   140          -0.2070856071          -5.6350858515       g       B1g (4)
   14     5          -0.2045977021          -5.5673865145      Ag        Ag (1)
   15   102          -0.1291066513          -3.5131705893       u       B3u (3)
   16   170          -0.1291066513          -3.5131705893       u       B1u (5)
   17    62          -0.1205407359          -3.2800801789      Au       B2u (2)
   18     6          -0.0960424227          -2.6134471880      Ag        Ag (1)
   19   171           0.0931325316           2.5342650251       u       B1u (5)
   20   103           0.0931325316           2.5342650251       u       B3u (3)
   21    63           0.0979381436           2.6650323759       u       B2u (2)
   22   264           0.0979381436           2.6650323759       u        Au (8)
   23   172           0.1008452639           2.7441391399       u       B1u (5)
   24   104           0.1008452639           2.7441391399       u       B3u (3)
   25    64           0.1018210050           2.7706904055      Au       B2u (2)
   26   237           0.1478407975           4.0229526223       g       B2g (7)
   27     7           0.1478407975           4.0229526223       g        Ag (1)
   28   209           0.1651136266           4.4929701987       g       B3g (6)
   29   141           0.1651136266           4.4929701987       g       B1g (4)
   30     8           0.1707570757           4.6465362557      Ag        Ag (1)
   31   173           0.2852066264           7.7608668588       u       B1u (5)
   32   105           0.2852066264           7.7608668588       u       B3u (3)
   33    65           0.3102233140           8.4416055365      Au       B2u (2)
   34     9           0.7628976519          20.7595005005      Ag        Ag (1)
   35    10           0.9581748102          26.0732621255       g        Ag (1)
   36   238           0.9581748102          26.0732621255       g       B2g (7)
   37   210           0.9655851389          26.2749074200       g       B3g (6)
   38   142           0.9655851389          26.2749074200       g       B1g (4)
   39    11           0.9709289616          26.4203202288       g        Ag (1)
   40   239           0.9709289616          26.4203202288       g       B2g (7)
   41   211           0.9741573503          26.5081691510       g       B3g (6)
   42   143           0.9741573503          26.5081691510       g       B1g (4)
   43    12           0.9752373526          26.5375575071      Ag        Ag (1)
   44   174           1.0363421399          28.2003033023       u       B1u (5)
   45   106           1.0363421399          28.2003033023       u       B3u (3)
   46    66           1.0518955197          28.6235322836       u       B2u (2)
   47   265           1.0518955197          28.6235322836       u        Au (8)
   48   107           1.0612406707          28.8778267695       u       B3u (3)
   49   175           1.0612406707          28.8778267695       u       B1u (5)
   50    67           1.0643731834          28.9630667750      Au       B2u (2)
   51    13           1.1422867564          31.0832028814       g        Ag (1)
   52   240           1.1422867564          31.0832028814       g       B2g (7)
   53   212           1.1778263271          32.0502837665       g       B3g (6)
   54   144           1.1778263271          32.0502837665       g       B1g (4)
   55    14           1.1895813551          32.3701543397      Ag        Ag (1)
   56   108           1.5554325719          42.3254720658       u       B3u (3)
   57   176           1.5554325719          42.3254720658       u       B1u (5)
[...]
   7.29787238520851        7.34076180415333        7.36236295154591     
   8.10010784676517        8.18083373041301        13.2388996596773     
   18.8977627658047        18.9690975582851        19.0047132388465     
   19.2952847358634        19.3896354631225        34.4470952289092     
   57.5766005883454        57.6528999033301        85.9867075781045     
   175.144036040254        175.188476231064        206.003626079441     
   319.101379530103        319.133355501880        319.149345834096     
   487.813250635294        530.251376210528        530.271479724910     
   1179.62393372864      -0.207085607103208       0.165113626627173     
  0.965585138900264       0.974157350303362        1.17782632714144     
   3.42480777397915        3.44900533103680        3.72087221527984     
   6.25378709357553        6.27564300214251        6.28662720414530     
   9.03573995713538        9.08062921947460        9.98954807076501     
   16.1044305172518        16.1473765310296        16.1689429187879     
   22.5401998597570        22.5976443618164        25.4689254654180     
   64.5681881282325        101.593287312131        101.633423868063     
   160.282389115219        372.929970548963        372.948234966245     
   392.249695134841        982.630318826932      -0.997210694544133     
 -0.304006979595331      -0.129106651348572       9.313253162701386E-002
  0.100845263894582       0.285206626386299        1.03634213989712     
   1.06124067067797        1.55543257186360        2.64365522728549     
   2.66184189387958        2.67100080556709        3.22863562185090     
   3.28108657109450        4.87101448514299        7.29787238520853     
   7.34076180415340        7.36236295154592        8.10010784676513     
   8.18083373041294        13.2388996596785        18.8977627658049     
   18.9690975582851        19.0047132388466        19.2952847358633     
   19.3896354631226        34.4470952289097        57.5766005883448     
   57.6528999033300        85.9867075781065        175.144036040254     
   175.188476231063        206.003626079442        319.101379530102     
   319.133355501880        319.149345834092        487.813250635302     
   530.251376210529        530.271479724914        1179.62393372864     
 -0.207085607103230       0.165113626627124       0.965585138900263     
  0.974157350303358        1.17782632714135        3.42480777397915     
   3.44900533103677        3.72087221527964        6.25378709357555     
   6.27564300214249        6.28662720414525        9.03573995713539     
   9.08062921947453        9.98954807076484        16.1044305172518     
   16.1473765310296        16.1689429187878        22.5401998597571     
   22.5976443618164        25.4689254654177        64.5681881282325     
   101.593287312131        101.633423868064        160.282389115218     
   372.929970548964        372.948234966245        392.249695134842     
   982.630318826933      -0.214740992634135       0.147840797477795     
  0.958174810233720       0.970928961619800        1.14228675641088     
   3.40385695008552        3.43989355970786        3.66518003793618     
   6.23884647387272        6.26606274277805        6.28250368104778     
   8.99667545573807        9.06375820801182        9.92048408561267     
   16.0750474806883        16.1285572036880        16.1608481625366     
   22.4901400151783        22.5760724641603        25.4009859082354     
   64.5148198042857        101.558189826713        101.618369509559     
   160.247156301131        372.913989967976        372.941385697439     
   392.229641824866        982.620945664424       9.793814363265253E-002
   1.05189551971100        2.65386413629051        2.66756094969113     
   3.26134740261735        7.32194742147767        7.35424995175179     
   8.15044604284513        18.9379341598176        18.9913540531692     
   19.3541551861758        57.6242779027437        175.171812779623     
   319.119365244514        319.143349276150        530.263939954156     
 @CHECKOUT-I, Total execution time (CPU/WALL):       75.71/     212.84 seconds.
--executable xvtran finished with status     0 in      212.89 seconds (walltime).
 --invoking executable--
/cvmfs/restricted.computecanada.ca/easybuild/software/2020/avx2/Compiler/intel2020/cfour/2.1/bin/xintprc
 @GETMEM-I,  Allocated   19073 MB of main memory.
  @GMOIAA-I, Processing MO integrals for spin case AA.
  @GMOIAA-I, Generation of integral list completed.
                      TYPE                NUMBER
                      ----               --------
                      PPPP              91788410
                      PPPH               4025844
                      PPHH                 46503
                      PHPH                 31530
                      PHHH                   882
                      HHHH                    13

                     TOTAL              95893182
  @GMOIAA-I, Processing MO integrals for spin case BB.
  @GMOIAA-I, Generation of integral list completed.
                      TYPE                NUMBER
                      ----               --------
                      PPPP              93126423
                      PPPH               2728422
                      PPHH                 21591
                      PHPH                 16401
                      PHHH                   342
                      HHHH                     6

                     TOTAL              95893185
  @GMOIAB-I, Processing MO integrals for spin case AB.
                      TYPE                NUMBER
                      ----               --------
                      PPPP             184871139
                      PPPH1H             4056218
                      PPPH2H             2708550
                      PPHH                 62226
                      PHPH1P               16281
                      PHPH2P               31804
                      PHHH1P                 459
                      PHHH2P                 616
                      HHHH                    12

                     TOTAL             191747305

  @FORMT2-I, Second-order MP correlation energies:
  @FORMT2-I, Singles contribution will be calculated.
            ------------------------------------------------
            E(SCF)                  =    -52.815841134819 a.u.
            E2(AA)                  =     -0.007286037764 a.u.
            E2(BB)                  =     -0.001199360314 a.u.
            E2(AB)                  =     -0.110445135735 a.u.
            E2(SINGLE)              =     -0.003561714267 a.u.
            E2(TOT)                 =     -0.118930533813 a.u.
            Total MP2 energy        =    -52.938333382900 a.u.
            ------------------------------------------------
            ----------------------------------------------
                     Projected spin multiplicities: 
            ----------------------------------------------
             <0|S^2|0>                  =    0.7500000000.
             <0|S^2 T2|0>               =    0.0000000000.
             Projected <0|S^2 exp(T)|0> =    0.7500000000.
             Approximate spin mult.     =    2.0000000000.
            ----------------------------------------------
   Largest T2 amplitudes for spin case AA:
   i   j   a   b             i   j   a   b             i   j   a   b
-----------------------------------------------------------------------------
[  3   2 212 168] 0.01034 [  3   2 144 100] 0.01034 [  3   2 141 100]-0.00915
[  3   2 209 168]-0.00915 [  3   2 215 168]-0.00625 [  3   2 147 100]-0.00625
[  3   2 208 168] 0.00542 [  3   2 140 100] 0.00542 [  3   2  68  10]-0.00501
[  3   2  65  10] 0.00474 [  3   2  65   4] 0.00391 [  3   2  68  19] 0.00380
[  3   2  68   4]-0.00370 [  3   2  65   7]-0.00355 [  3   2  61  10]-0.00352
-----------------------------------------------------------------------------
   Norm of T2AA vector (    14973 symmetry allowed elements):  0.0301601013.
-----------------------------------------------------------------------------
   Largest T2 amplitudes for spin case BB:
   i   j   a   b             i   j   a   b             i   j   a   b
-----------------------------------------------------------------------------
[  2   1 114 100]-0.00172 [  2   1 182 168]-0.00172 [  2   1  74  60]-0.00169
[  2   1 120 100] 0.00165 [  2   1 188 168] 0.00165 [  2   1  80  60] 0.00161
[  2   1 176 168] 0.00105 [  2   1 108 100] 0.00105 [  2   1  68  60] 0.00103
[  2   1  80  68] 0.00084 [  2   1 188 176] 0.00083 [  2   1 120 108] 0.00083
[  2   1 126 100]-0.00073 [  2   1 194 168]-0.00073 [  2   1  86  60]-0.00072
-----------------------------------------------------------------------------
   Norm of T2BB vector (     5190 symmetry allowed elements):  0.0060369596.
-----------------------------------------------------------------------------
   Largest T2 amplitudes for spin case AB:
       _       _                 _       _                 _       _
   i   j   a   b             i   j   a   b             i   j   a   b
-----------------------------------------------------------------------------
[  2   2 168 168]-0.07169 [  2   2 100 100]-0.07169 [  3   2  14  60] 0.02206
[  3   2 212 168] 0.01986 [  3   2 144 100] 0.01986 [  3   2   8  60]-0.01888
[  3   2 141 100]-0.01695 [  3   2 209 168]-0.01695 [  3   2  20  60]-0.01319
[  3   2 215 168]-0.01193 [  3   2 147 100]-0.01193 [  3   2   6  60] 0.01098
[  2   2 168 169]-0.01031 [  2   2 100 101]-0.01031 [  3   2 208 168] 0.00983
-----------------------------------------------------------------------------
   Norm of T2AB vector (    62226 symmetry allowed elements):  0.1350981167.
-----------------------------------------------------------------------------
 @CHECKOUT-I, Total execution time (CPU/WALL):       72.69/     140.11 seconds.
--executable xintprc finished with status     0 in      140.58 seconds (walltime).
  calling xvcc 
 --invoking executable--
/cvmfs/restricted.computecanada.ca/easybuild/software/2020/avx2/Compiler/intel2020/cfour/2.1/bin/xvcc
 @GETMEM-I,  Allocated   19073 MB of main memory.
   CCSD(T) energy will be calculated.
   The reference state is a ROHF wave function.
   The total correlation energy is -0.122534333184 a.u.
   The total correlation energy is -0.136648848229 a.u.
  Convergence information after     1 iterations: 
  Largest element of residual vector : -0.29454848E-01.
  Largest element of DIIS residual   : -0.29454848E-01.
   The total correlation energy is -0.142218196455 a.u.
  Convergence information after     2 iterations: 
  Largest element of residual vector : -0.15287491E-01.
  Largest element of DIIS residual   : -0.28195285E-02.
   The total correlation energy is -0.146844146932 a.u.
  Convergence information after     3 iterations: 
  Largest element of residual vector : -0.13164363E-02.
  Largest element of DIIS residual   :  0.29290652E-03.
   The total correlation energy is -0.147111334164 a.u.
  Convergence information after     4 iterations: 
  Largest element of residual vector : -0.26123063E-03.
  Largest element of DIIS residual   : -0.77187370E-04.
   The total correlation energy is -0.147167799297 a.u.
  Convergence information after     5 iterations: 
  Largest element of residual vector :  0.34854118E-04.
  Largest element of DIIS residual   :  0.18232404E-04.
   The total correlation energy is -0.147160730631 a.u.
  Convergence information after     6 iterations: 
  Largest element of residual vector :  0.80736310E-05.
  Largest element of DIIS residual   :  0.47419244E-05.
   The total correlation energy is -0.147160949761 a.u.
  Convergence information after     7 iterations: 
  Largest element of residual vector :  0.20955583E-05.
  Largest element of DIIS residual   :  0.68866292E-06.
   The total correlation energy is -0.147160966292 a.u.
  Convergence information after     8 iterations: 
  Largest element of residual vector :  0.33955752E-06.
  Largest element of DIIS residual   :  0.13459542E-06.
   The total correlation energy is -0.147160954123 a.u.
  Convergence information after     9 iterations: 
  Largest element of residual vector :  0.61352149E-07.
  Largest element of DIIS residual   : -0.22994414E-07.
   The total correlation energy is -0.147160945533 a.u.
  Convergence information after    10 iterations: 
  Largest element of residual vector :  0.97571963E-08.
  Largest element of DIIS residual   :  0.62307231E-08.
   The total correlation energy is -0.147160943704 a.u.
  Convergence information after    11 iterations: 
  Largest element of residual vector :  0.24195534E-08.
  Largest element of DIIS residual   :  0.13862219E-08.
   The total correlation energy is -0.147160943467 a.u.
  Convergence information after    12 iterations: 
  Largest element of residual vector :  0.60326821E-09.
  Largest element of DIIS residual   :  0.31362380E-09.
   The total correlation energy is -0.147160943533 a.u.
  Convergence information after    13 iterations: 
  Largest element of residual vector :  0.14124729E-09.
  Largest element of DIIS residual   :  0.69125754E-10.
   The total correlation energy is -0.147160943557 a.u.
  Convergence information after    14 iterations: 
  Largest element of residual vector :  0.30364981E-10.
  Largest element of DIIS residual   : -0.18440401E-10.
  Amplitude equations converged in    14iterations.
   The total correlation energy is -0.147160943562 a.u.
   The CC iterations have converged.

            ----------------------------------------------
                     Projected spin multiplicities: 
            ----------------------------------------------
             <0|S^2|0>                  =    0.7500000000.
             <0|S^2 (T2+T1**2) |0>      =    0.0000000000.
             <0|S^2 T1|0>               =    0.0000000000.
             Projected <0|S^2 exp(T)|0> =    0.7500000000.
             Approximate spin mult.     =    2.0000000000.
            ----------------------------------------------
   Largest T1 amplitudes for spin case AA:
   i       a                 i       a                 i       a    
-----------------------------------------------------------------------------
[  2       4    ] 0.01189 [  2      14    ]-0.01049 [  2      10    ] 0.00977
[  2       7    ]-0.00953 [  2       8    ] 0.00896 [  2      20    ] 0.00608
[  2       6    ]-0.00522 [  2      19    ]-0.00354 [  3      65    ]-0.00217
[  3      61    ] 0.00188 [  3      68    ] 0.00154 [  2      30    ]-0.00146
[  3      62    ] 0.00144 [  1      19    ]-0.00079 [  1      20    ] 0.00076
-----------------------------------------------------------------------------
   Norm of T1AA vector (      153 symmetry allowed elements):  0.0247610851.
-----------------------------------------------------------------------------
   Largest T2 amplitudes for spin case AA:
   i   j   a   b             i   j   a   b             i   j   a   b
-----------------------------------------------------------------------------
[  3   2 212 168] 0.00965 [  3   2 144 100] 0.00965 [  3   2 141 100]-0.00902
[  3   2 209 168]-0.00902 [  3   2  68  10]-0.00598 [  3   2  65  10] 0.00578
[  3   2 208 168] 0.00549 [  3   2 140 100] 0.00549 [  3   2 215 168]-0.00540
[  3   2 147 100]-0.00540 [  3   2  65   4] 0.00471 [  3   2  68  19] 0.00443
[  3   2  68   4]-0.00440 [  3   2  61  10]-0.00433 [  3   2  65   7]-0.00430
-----------------------------------------------------------------------------
   Norm of T2AA vector (    14973 symmetry allowed elements):  0.0307686723.
-----------------------------------------------------------------------------
   Largest T1 amplitudes for spin case BB:
   i       a                 i       a                 i       a    
-----------------------------------------------------------------------------
[  2      14    ] 0.02018 [  2       8    ]-0.01809 [  2      20    ]-0.01108
[  2       5    ] 0.01035 [  2      29    ] 0.00254 [  2      18    ]-0.00121
[  1      20    ]-0.00086 [  2       3    ]-0.00084 [  1      29    ] 0.00071
[  1      14    ] 0.00063 [  2      17    ] 0.00042 [  1      39    ]-0.00034
[  1       8    ]-0.00033 [  2      30    ] 0.00030 [  1       9    ]-0.00026
-----------------------------------------------------------------------------
   Norm of T1BB vector (      114 symmetry allowed elements):  0.0312427646.
-----------------------------------------------------------------------------
   Largest T2 amplitudes for spin case BB:
   i   j   a   b             i   j   a   b             i   j   a   b
-----------------------------------------------------------------------------
[  2   1  74  60]-0.00166 [  2   1  80  60] 0.00160 [  2   1 120 100] 0.00152
[  2   1 188 168] 0.00152 [  2   1 182 168]-0.00150 [  2   1 114 100]-0.00150
[  2   1  68  60] 0.00101 [  2   1 188 176] 0.00086 [  2   1 120 108] 0.00086
[  2   1  80  68] 0.00085 [  2   1 176 168] 0.00084 [  2   1 108 100] 0.00084
[  2   1  80  65]-0.00072 [  2   1  86  60]-0.00071 [  2   1 126 100]-0.00071
-----------------------------------------------------------------------------
   Norm of T2BB vector (     5190 symmetry allowed elements):  0.0057565347.
-----------------------------------------------------------------------------
   Largest T2 amplitudes for spin case AB:
       _       _                 _       _                 _       _
   i   j   a   b             i   j   a   b             i   j   a   b
-----------------------------------------------------------------------------
[  2   2 100 100]-0.13292 [  2   2 168 168]-0.13292 [  3   2  14  60] 0.02873
[  3   2   8  60]-0.02646 [  3   2 212 168] 0.02540 [  3   2 144 100] 0.02540
[  3   2 141 100]-0.02320 [  3   2 209 168]-0.02320 [  2   2 168 169]-0.01790
[  2   2 100 101]-0.01790 [  2   2 101 100]-0.01698 [  2   2 169 168]-0.01698
[  3   2 168 212] 0.01621 [  3   2 100 144] 0.01621 [  3   2   6  60] 0.01602
-----------------------------------------------------------------------------
   Norm of T2AB vector (    62226 symmetry allowed elements):  0.2200624670.
-----------------------------------------------------------------------------
       Summary of iterative solution of CC equations 
      -----------------------------------------------------------
                       Correlation           Total
       Iteration         Energy              Energy
      -----------------------------------------------------------
            0        -0.122534333184     -52.938375468003  DIIS 
            1        -0.136648848229     -52.952489983048  DIIS 
            2        -0.142218196455     -52.958059331274  DIIS 
            3        -0.146844146932     -52.962685281751  DIIS 
            4        -0.147111334164     -52.962952468983  DIIS 
            5        -0.147167799297     -52.963008934116  DIIS 
            6        -0.147160730631     -52.963001865450  DIIS 
            7        -0.147160949761     -52.963002084580  DIIS 
            8        -0.147160966292     -52.963002101111  DIIS 
            9        -0.147160954123     -52.963002088942  DIIS 
           10        -0.147160945533     -52.963002080352  DIIS 
           11        -0.147160943704     -52.963002078523  DIIS 
           12        -0.147160943467     -52.963002078286  DIIS 
           13        -0.147160943533     -52.963002078352  DIIS 
           14        -0.147160943562     -52.963002078381  DIIS 
      -----------------------------------------------------------
      A miracle has come to pass. The CC iterations have converged.
 @TRPS2-I, E4ST A   -0.000028369704440
 @TRPS2-I, E4ST B    0.000003264870563
        E(CCSD)           =     -52.963002078381
        E(CCSD(T))        =     -52.964845665528
 @CHECKOUT-I, Total execution time (CPU/WALL):       49.56/      29.63 seconds.
--executable xvcc finished with status     0 in       29.73 seconds (walltime).
  The final electronic energy is       -52.964845665527676 a.u. 
  This computation required                          627.31 seconds (walltime).
