 --invoking executable--
/home/nike/cfour_v2.00beta/cfour_v2.00beta/bin/xjoda


   *************************************************************************
         <<<     CCCCCC     CCCCCC   |||     CCCCCC     CCCCCC   >>>
       <<<      CCC        CCC       |||    CCC        CCC         >>>
      <<<      CCC        CCC        |||   CCC        CCC            >>>
    <<<        CCC        CCC        |||   CCC        CCC              >>>
      <<<      CCC        CCC        |||   CCC        CCC            >>>
       <<<      CCC        CCC       |||    CCC        CCC         >>>
         <<<     CCCCCC     CCCCCC   |||     CCCCCC     CCCCCC   >>>
   *************************************************************************

     ****************************************************************
     * CFOUR Coupled-Cluster techniques for Computational Chemistry *
     ****************************************************************
 

   Department of Chemistry                Institut fuer Physikalische Chemie
   University of Texas at Austin          Universitaet Mainz
   Austin, TX  78712, USA                 D-55099 Mainz, Germany
 
                       Version 2.00beta
 
                     blg8442.int.ets1.calculquebec.ca                  
                     Mo 24. Feb 23:57:59 EST 2020                      
                     integer*8 version is running
 
********************************************************************************
*                          Input from ZMAT file                                *
********************************************************************************
TITLE                                                                           
B                                                                               
F 1 R                                                                           
                                                                                
R=2.38617923445                                                                 
                                                                                
*ACES2(CALC=CCSD(T)                                                             
UNITS=BOHR                                                                      
#GEOM=1.262711672*10/5.29177210903_Zhang...Bernath1995orZhangThesis1997         
#COORD=CARTESIAN                                                                
COORD=INTERNAL                                                                  
PRINT=4                                                                         
JODA_PRINT=4                                                                    
INPUT_MRCC=OFF                                                                  
#CC_PROG=MRCC                                                                   
FROZEN_CORE=ON                                                                  
#DROPMO=1>5                                                                     
CONTRACTION=GENERAL                                                             
#CONTRACTION=SEGMENTED                                                          
RELATIVISTIC=OFF                                                                
#EXCITE=EOMEE                                                                   
#ESTATE_CONV=5                                                                  
#ESTATE_SYM=2/2/2/2/2/2/2/2                                                     
XFORM_TOL=18                                                                    
SAVE_INTS=ON                                                                    
SCF_EXPORDER=6                                                                  
SCF_EXPSTART=5                                                                  
#SCF_DAMPING=1000                                                               
SCF_EXTRAPOLATION=ON                                                            
SCF_CONV=12                                                                     
SCF_MAXCYC=99999                                                                
CC_CONV=9                                                                       
CC_MAXCYC=999                                                                   
T3_EXTRAPOL=ON                                                                  
REFERENCE=RHF                                                                   
CHARGE=+0                                                                       
MULT=1                                                                          
ABCDTYPE=STANDARD                                                               
#OCCUPATION=3-2-2-0-1-0-0-0/3-1-1-0-1-0-0-0                                     
MEM=12                                                                          
MEM_UNIT=GB                                                                     
BASIS=SPECIAL)                                                                  
                                                                                
B:def2-TZVPP                                                                    
F:def2-TZVPP                                                                    
                                                                                
********************************************************************************
  @GTFLGS-W, Keyword #GEOM not known and is ignored.
  @GTFLGS-W, Keyword #COORD not known and is ignored.
  @GTFLGS-W, Keyword #CC_PROG not known and is ignored.
  @GTFLGS-W, Keyword #DROPMO not known and is ignored.
  @GTFLGS-W, Keyword #CONTRACTION not known and is ignored.
  @GTFLGS-W, Keyword #EXCITE not known and is ignored.
  @GTFLGS-W, Keyword #ESTATE_CONV not known and is ignored.
  @GTFLGS-W, Keyword #ESTATE_SYM not known and is ignored.
  @GTFLGS-W, Keyword #SCF_DAMPING not known and is ignored.
  @GTFLGS-W, Keyword #OCCUPATION not known and is ignored.
    -------------------------------------------------------------------
                    CFOUR Control Parameters 
    -------------------------------------------------------------------
        External           Internal           Value            Units
          Name               Name
    -------------------------------------------------------------------
       ABCDTYPE             IABCDT         STANDARD     [  0]   ***   
       ANHARMONIC           IANHAR         OFF          [  0]   ***   
       ANH_ALGORIT          IANALG         STANDARD     [  0]   ***   
       ANH_DERIVAT          IANDER         SECOND       [  1]   ***   
       ANH_STEPSIZ          ICUBST             50000          x 10-6  
       ANH_SYMMETR          IANHSM         ABELIAN      [  0]   ***   
       AO_LADDERS           IAOLAD         SINGLEPASS   [  1]   ***   
       BASIS                IBASIS         SPECIAL      [  0]   ***   
       BREIT                IBREIT         OFF          [  0]   ***   
       BRUCK_CONV           IBRTOL          10D-  4             ***   
       BRUECKNER            IBRKNR             OFF      [  0]   ***   
       BUFFERSIZE           IBUFFS            600               ***   
       CACHE_RECS           ICHREC             10               ***   
       CALCLEVEL            ICLLVL           CCSD(T)    [ 22]   ***   
       CCORBOPT             ICCORB             OFF      [  0] x 0.01  
       CC_CONV              ICCCNV          10D-  9             ***   
       CC_EXPORDER          ICCEOR              5               ***   
       CC_EXTRAPOL          ICCEXT             DIIS     [  1]   ***   
       CC_MAXCYC            ICCCYC            999              cycles 
       CC_PROGRAM           ICCPRO         VCC          [  0]   ***   
       CHARGE               ICHRGE              0               ***   
       CHOLESKY             ICHOLE         OFF          [  0]   ***   
       CIS_CONV             ICISTL              5               ***   
       COMM_SIZE            IPSIZE            ***               ***   
       CONSTANT             ICONST         OLD          [  1]   ***   
       CONTINUUM            ICONTU         NONE         [  0]   ***   
       CONTRACTION          ICNTYP          GENERAL     [  1]   ***   
       COORDINATES          ICOORD         INTERNAL     [  0]   ***   
       CPHF_CONVER          ICPHFT          10D- 16             ***   
       CPHF_MAXCYC          ICPHFC             64              cycles 
       CUBIC                ICUBIC         OFF          [  0]   ***   
       CURVILINEAR          ICURVY            OFF       [  0]   ***   
       DBOC                 IDBOC          OFF          [  0]   ***   
       DCT                  IDCT           OFF          [  0]   ***   
       DERIV_LEV            IDRLVL            ZERO      [  0]   ***   
       DIAG_MRCC            IEOMST          10D-  0             ***   
       DIFF_TYPE            IDIFTY         RELAXED      [  0]   ***   
       DIRECT               IDIRCT         OFF          [  0]   ***   
       DROPMO               IDRPMO      NONE         
       ECP                  IECP           OFF          [  0]   ***   
       EIGENVECTOR          IVEC                1               ***   
       EL_ANHARM            IELANH         OFF          [  0]   ***   
       EOMFOLLOW            IEOMSR         ENERGY       [  0]   ***   
       EOM_MRCC             IMRCCE         NEW          [  1]   ***   
       EOM_NONIT            EOMNON         OFF          [  0]   ***   
       EOM_NSING            IEOMSI          10D-  0             ***   
       EOM_NSTATES          IMRCCD         DAVIDSON     [  0]   ***   
       EOM_NTRIP            IEOMTR          10D-  0             ***   
       EOM_ORDER            IEXORD         ENERGY       [  0]   ***   
       ESTATE_CONV          IEXTOL          10D-  5             ***   
       ESTATE_DIAG          IEXDIG         ITERATIVE    [  0]   ***   
       ESTATE_LOCK          IESLOC         ON           [  1]   ***   
       ESTATE_MAXC          IEXMXC             20               ***   
       ESTATE_PROP          IEXPRP         OFF          [  0]   ***   
       EVAL_HESS            IRECAL              0            # of cyc.
       EXCITATION           IEXCIT              0               ***   
       EXCITE               IEXCIT         NONE         [  0]   ***   
       FCGRADNEW            IFCGNW         OFF          [  0]   ***   
       FC_FIELD             IFINFC              0             x 10-6  
       FD_CALTYPE           IFDCAL         GRADONLY     [  0]   ***   
       FD_PROJECT           IFDPRJ         OFF          [  1]   ***   
       FD_STEPSIZE          IDISFD              0            10-4 bohr
       FD_USEGROUP          IFDGRP         FULL         [  0]   ***   
       FILE_RECSIZ          IFLREC              4096           words  
       FINITE_PERT          IFIPER              0             x 10-6  
       FIXGEOM              IFIXGM         OFF          [  0]   ***   
       FOCK                 IFOCK          AO           [  1]   ***   
       FREQ_ALGORI          IVIALG         STANDARD     [  0]   ***   
       FROZEN_CORE          IFROCO         ON           [  1]   ***   
       FROZEN_VIRT          IFROVI         OFF          [  0]   ***   
       GAMMA_ABCD           IGABCD         STORE        [  0]   ***   
       GAMMA_ABCI           IGABCI         STORE        [  0]   ***   
       GENBAS_1             IGNBS1              0               ***   
       GENBAS_2             IGNBS2              0               ***   
       GENBAS_3             IGNBS3              0               ***   
       GENBAS_4             IGNBS4              0               ***   
       GEO_CONV             ICONTL              5              H/bohr 
       GEO_MAXCYC           IOPTCY             50               ***   
       GEO_MAXSTEP          IMXSTP            300            millibohr
       GEO_METHOD           INR            SINGLE_POINT [  5]   ***   
       GIAO                 IGIAO          OFF          [  1]   ***   
       GIMIC                IGIMIC         OFF          [  0]   ***   
       GRID                 IGRID          OFF          [  0]   ***   
       GRID_ALGO            IGALGO         SERIAL       [  0]   ***   
       GUESS                IGUESS            MOREAD    [  0]   ***   
       HBAR                 IHBAR              OFF      [  0]   ***   
       HESS_TYPE            IHESTP         SCF          [  0]   ***   
       HF2_FILE             IHF2Fl         USE          [  1]   ***   
       HFSTABILITY          ISTABL         OFF          [  0]   ***   
       INCORE               INCORE             OFF      [  0]   ***   
       INPUT_MRCC           IMRCC          OFF          [  0]   ***   
       INTEGRALS            INTTYP             VMOL     [  1]   ***   
       JODA_PRINT           IJPRNT              4               ***   
       LINDEP_TOL           ILINDP              8               ***   
       LINEQ_CONV           IZTACN          10D-  7           cycles  
       LINEQ_EXPOR          ILMAXD              5               ***   
       LINEQ_MAXCY          ILMAXC             50               ***   
       LINEQ_TYPE           ILTYPE         DIIS         [  1]   ***   
       LOCK_ORBOCC          ILOCOC             OFF      [  0]   ***   
       MEMORY_SIZE          IMEMSZ         *********           words  
       MEM_UNIT             IMEMU          GB           [  3]   ***   
       MRCC                 IMRCCC         OFF          [  0]   ***   
       MULTIPLICTY          IMULTP              1               ***   
       NEGEVAL              IDIE             ABORT      [  0]   ***   
       NEWNORM              INEWNO         OFF          [  0]   ***   
       NON-HF               INONHF             OFF      [  0]   ***   
       NTOP_TAMP            ITOPT2             15               ***   
       NUC_MODEL            INUCMO         POINT        [  0]   ***   
       OCCUPATION           IOCCU   ESTIMATED BY SCF 
       OPEN-SHELL           IOPEN          SPIN-ORBITAL [  0]   ***   
       ORBITALS             IORBTP           STANDARD   [  0]   ***   
       PARALLEL             IPARAL         ON           [  1]   ***   
       PARA_INT             IPINTS         ON           [  1]   ***   
       PARA_PRINT           IPPRIN              0               ***   
       PERT_ORB             IPTORB         STANDARD     [  0]   ***   
       POINTS               IGRDFD              0               ***   
       PRINT                IPRNT               4               ***   
       PROPS                IPROPS             OFF      [  0]   ***   
       PROP_INTEGR          IINTYP         INTERNAL     [  0]   ***   
       PSI                  IPSI           OFF          [  0]   ***   
       QUARTIC              IQUART         OFF          [  0]   ***   
       RAMAN_INT            IRAMIN         OFF          [  0]   ***   
       RAMAN_ORB            IRAMRE         UNRELAXED    [  0]   ***   
       RDO                  IRDOFM             OFF      [  0]   ***   
       REFERENCE            IREFNC             RHF      [  0]   ***   
       RELATIVIST           IRELAT         OFF          [  0]   ***   
       RELAX_DENS           IRDENS             OFF      [  0]   ***   
       RESET_FLAGS          IRESET             OFF      [  0]   ***   
       RESTART_CC           ICCRES         OFF          [  0]   ***   
       ROT_EVEC             ROTVEC              0               ***   
       SAVE_INTS            ISVINT              ON      [  1]   ***   
       SCALE_ON             ISTCRT              0               ***   
       SCF_CONV             ISCFCV          10D- 12             ***   
       SCF_DAMPING          IDAMP               0             x 10-3  
       SCF_EXPORDE          IRPPOR              6               ***   
       SCF_EXPSTAR          IRPPLS              5               ***   
       SCF_EXTRAPO          IRPP                ON      [  1]   ***   
       SCF_MAXCYC           ISCFCY            ***              cycles 
       SCF_NOSTOP           ISCFST         OFF          [  0]   ***   
       SCF_PRINT            ISCFPR              0               ***   
       SD_FIELD             IFINSD              0             x 10-6  
       SEQUENCE             ISEQUE         OFF          [  0]   ***   
       SOPERT               IPERSO         OFF          [  0]   ***   
       SPHERICAL            IDFGHI             ON       [  1]   ***   
       SPINORBIT            ISOCAL         OFF          [  0]   ***   
       SPINROTATIO          ISRCON         OFF          [  0]   ***   
       SPIN_FLIP            ISPFLP         OFF          [  0]   ***   
       SPIN_ORBIT           ISPORB         OFF          [  0]   ***   
       SPIN_SCAL            ISCSMP         OFF          [  0]   ***   
       SUBGROUP             ISUBGP         DEFAULT      [  0]   ***   
       SUBGRPAXIS           ISBXYZ         X            [  0]   ***   
       SYMMETRY             ISYM             ON         [  0]   ***   
       SYM_CHECK            ISYMCK         OVERRIDE     [  1]   ***   
       T3_EXTRAPOL          IT3EXT         ON           [  1]   ***   
       TAMP_SUM             IEVERY              5               ***   
       TESTSUITE            ITESTS         OFF          [  0]   ***   
       THERMOCH             ITHERM         OFF          [  0]   ***   
       TOL_CHOLESK          ITOLCH          10D-  4             ***   
       TRANGRAD             IRESRM         OFF          [  0]   ***   
       TRANS_INV            ITRAIN         USE          [  0]   ***   
       TREAT_PERT           ITREAT         SIMULTANEOUS [  0]   ***   
       UIJ_THRESHO          IUIJTH              1               ***   
       UNITS                IUNITS         BOHR         [  1]   ***   
       UNOS                 IUNOS          OFF          [  0]   ***   
       UPDATE_HESS          IHUPDT         ON           [  1]   ***   
       VIBPHASE             ISETPH         STANDARD     [  0]   ***   
       VIBRATION            IVIB              NO        [  0]   ***   
       VIB_ALGORIT          IGEALG         STANDARD     [  0]   ***   
       VNATORB              IVNORB         OFF          [  0]   ***   
       VTRAN                IVTRAN         FULL/PARTIAL [  0]   ***   
       XFIELD               IXEFLD              0             x 10-6  
       XFORM_TOL            IXFTOL          10D- 18             ***   
       YFIELD               IYEFLD              0             x 10-6  
       ZFIELD               IZEFLD              0             x 10-6  
    -------------------------------------------------------------------
   2 entries found in Z-matrix 
   Job Title : TITLE                                                                           
 Variable names read by FETCHZ
  1           
  2           
  3           
  4 R         
  5           
  6           
 Atomic symbols read by FETCHZ
  1 B    
  2 F    
 Connectivity matrix read by FETCHZ
  1   0
  2   0
  3   0
  4   1
  5   0
  6   0
   There are  1 unique internal coordinates.
   Of these,  0 will be optimized.
   User supplied Z-matrix: 
--------------------------------------------------------------------------------
       SYMBOL    BOND      LENGTH    ANGLE     ANGLE     DIHED     ANGLE
                  TO      (ANGST)    WRT      (DEG)      WRT      (DEG)
--------------------------------------------------------------------------------
        B    
        F          1         R    
                  *Initial values for internal coordinates* 
                      Name             Value
                        R               2.3861792345
--------------------------------------------------------------------------------
  1  B          5    11.00931
  2  F          9    18.99840
   11.0093054000
   18.9984032200
 After translation to center of mass coordinates 
        0.000000000000    0.000000000000   -1.510731653168
        0.000000000000    0.000000000000    0.875447581282
  Inertia tensor (amu*bohr**2)
   39.68719    0.00000    0.00000
    0.00000   39.68719    0.00000
    0.00000    0.00000    0.00000
    Inertia tensor:
       39.687186313550    0.000000000000    0.000000000000
        0.000000000000   39.687186313550    0.000000000000
        0.000000000000    0.000000000000    0.000000000000
    Principal axis orientation for molecular system: 
       -0.000000000000    0.000000000000    1.510731653168
        0.000000000000    0.000000000000   -0.875447581282
    Diagonalized inertia tensor:
       39.687186313550    0.000000000000    0.000000000000
        0.000000000000   39.687186313550    0.000000000000
        0.000000000000    0.000000000000    0.000000000000
    Eigenvectors of inertia tensor: 
        1.000000000000    0.000000000000    0.000000000000
        0.000000000000    1.000000000000    0.000000000000
        0.000000000000    0.000000000000   -1.000000000000
 factor:   60.1997200000000     
   Rotational constants (in cm-1): 
          1.5168553277             1.5168553277
   Rotational constants (in MHz): 
      45474.1850820964         45474.1850820964
  @SYMMETRY-I, Handedness of inertial frame:-1.00000
  @SYMMETRY-I, Sense of inertial frame y-axis will be changed.
  @SYMMETRY-I, The symmetry group is 2-fold degenerate.
  @SYMMETRY-I, The molecule belongs to a point group with doubly degenerate representations.
  @SYMMETRY-I, The molecule is linear.
   Principal axis orientation for molecule:
       -0.000000000000    0.000000000000    1.510731653168
        0.000000000000    0.000000000000   -0.875447581282
   Rotation about  3 is a valid symmetry operation 
   Reflection in plane  2 is a valid symmetry operation.
   Reflection in plane  1 is a valid symmetry operation.
  Symmetry bits:    3   4   0
********************************************************************************
   The full molecular point group is CXv .
   The largest Abelian subgroup of the full molecular point group is C2v .
   The computational point group is C2v .
********************************************************************************
--------------------------------------------------------------------------------
   Analysis of internal coordinates specified by Z-matrix 
--------------------------------------------------------------------------------
   *The nuclear repulsion energy is   18.858600121198450 a.u.
   *There is   1 degree of freedom within the tot. symm. molecular subspace.
   *Z-matrix requests optimization of   0 coordinates.
   *The optimization is constrained.
   *The following   1 parameters can have non-zero 
    derivatives within the totally symmetric subspace:
             R    [ 1]
   *The following   0 parameters are to be optimized:

   *The following coordinates must be varied in an  unconstrained optimization.
             R    [ 1]
--------------------------------------------------------------------------------
 ----------------------------------------------------------------
 Z-matrix   Atomic            Coordinates (in bohr)
  Symbol    Number           X              Y              Z
 ----------------------------------------------------------------
     B         5        -0.00000000     0.00000000     1.51073165
     F         9         0.00000000     0.00000000    -0.87544758
 ----------------------------------------------------------------
   Interatomic distance matrix (Angstroms) 
 
                 B             F    
                [ 1]        [ 2]
  B    [ 1]     0.00000
  F    [ 2]     1.26271     0.00000
  Inertia tensor (amu*bohr**2)
   39.68719    0.00000    0.00000
    0.00000   39.68719    0.00000
    0.00000    0.00000    0.00000
   Rotational constants (in cm-1): 
          1.5168553277             0.0000000000
   Rotational constants (in MHz): 
      45474.1850820964             0.0000000000
  @GTFLGS-W, Keyword #GEOM not known and is ignored.
  @GTFLGS-W, Keyword #COORD not known and is ignored.
  @GTFLGS-W, Keyword #CC_PROG not known and is ignored.
  @GTFLGS-W, Keyword #DROPMO not known and is ignored.
  @GTFLGS-W, Keyword #CONTRACTION not known and is ignored.
  @GTFLGS-W, Keyword #EXCITE not known and is ignored.
  @GTFLGS-W, Keyword #ESTATE_CONV not known and is ignored.
  @GTFLGS-W, Keyword #ESTATE_SYM not known and is ignored.
  @GTFLGS-W, Keyword #SCF_DAMPING not known and is ignored.
  @GTFLGS-W, Keyword #OCCUPATION not known and is ignored.
  There are   2 frozen-core orbitals.
  There are   62 basis functions.
 @GEOPT-W, Archive file not created for single-point calculation.
  @CHECKOUT-I, Total execution time (CPU/WALL):        0.55/       1.06 seconds.
--executable xjoda finished with status     0 in        3.74 seconds (walltime).
 --invoking executable--
/home/nike/cfour_v2.00beta/cfour_v2.00beta/bin/xvmol
 Serial version of molecule started
********************************************************************************
                    Input from MOL file
********************************************************************************
INTGRL        1    0    1    0    0    0    0    0    0                         
         *** CFOUR Program System (Release V0.1) ***                            
TITLE                                                                           
    2    2 X  Y       0.10E-08              0    0                              
   9999.00      3.00                                                            
          5.00000000    1    4    1    1    1    1                              
B #1  -0.000000000000000   0.000000000000000   1.510731653167859                
   11    5                                                                      
   8564.86606870000       2.283719815500000E-004  0.000000000000000E+000        
  0.000000000000000E+000  0.000000000000000E+000  0.000000000000000E+000        
   1284.15162630000       1.768257644700000E-003  0.000000000000000E+000        
  0.000000000000000E+000  0.000000000000000E+000  0.000000000000000E+000        
   292.278716040000       9.140708051599999E-003  0.000000000000000E+000        
  0.000000000000000E+000  0.000000000000000E+000  0.000000000000000E+000        
   82.7754691760000       3.634263898900000E-002  0.000000000000000E+000        
  0.000000000000000E+000  0.000000000000000E+000  0.000000000000000E+000        
   27.0179392690000       0.110634584410000       0.000000000000000E+000        
  0.000000000000000E+000  0.000000000000000E+000  0.000000000000000E+000        
   9.81496196600000       0.233673443210000       0.000000000000000E+000        
  0.000000000000000E+000  0.000000000000000E+000  0.000000000000000E+000        
   3.93185590590000       0.000000000000000E+000  0.418187779780000             
  0.000000000000000E+000  0.000000000000000E+000  0.000000000000000E+000        
   1.65955997120000       0.000000000000000E+000  0.223254737980000             
  0.000000000000000E+000  0.000000000000000E+000  0.000000000000000E+000        
  0.357629652390000       0.000000000000000E+000  0.000000000000000E+000        
   1.00000000000000       0.000000000000000E+000  0.000000000000000E+000        
  0.142462774960000       0.000000000000000E+000  0.000000000000000E+000        
  0.000000000000000E+000   1.00000000000000       0.000000000000000E+000        
  6.056059476800000E-002  0.000000000000000E+000  0.000000000000000E+000        
  0.000000000000000E+000  0.000000000000000E+000   1.00000000000000             
    6    3                                                                      
   22.4538758030000       5.026557517900000E-003  0.000000000000000E+000        
  0.000000000000000E+000                                                        
   5.10450583300000       3.280173896500000E-002  0.000000000000000E+000        
  0.000000000000000E+000                                                        
   1.49860813440000       0.131512307680000       0.000000000000000E+000        
  0.000000000000000E+000                                                        
  0.509278313150000       0.331971677690000       0.000000000000000E+000        
  0.000000000000000E+000                                                        
  0.181470777980000       0.000000000000000E+000  0.473143195700000             
  0.000000000000000E+000                                                        
  6.462189390400000E-002  0.000000000000000E+000  0.000000000000000E+000        
  0.258027839430000                                                             
    2    2                                                                      
  0.661000000000000        1.00000000000000       0.000000000000000E+000        
  0.199000000000000       0.000000000000000E+000   1.00000000000000             
    1    1                                                                      
  0.490000000000000        1.00000000000000                                     
          9.00000000    1    4    1    1    1    1                              
F #2   0.000000000000000   0.000000000000000  -0.875447581282141                
   11    5                                                                      
   35479.1004410000       2.154501488800000E-004  0.000000000000000E+000        
  0.000000000000000E+000  0.000000000000000E+000  0.000000000000000E+000        
   5318.47289830000       1.670068652700000E-003  0.000000000000000E+000        
  0.000000000000000E+000  0.000000000000000E+000  0.000000000000000E+000        
   1210.48109750000       8.673321147599999E-003  0.000000000000000E+000        
  0.000000000000000E+000  0.000000000000000E+000  0.000000000000000E+000        
   342.855181400000       3.504993317500000E-002  0.000000000000000E+000        
  0.000000000000000E+000  0.000000000000000E+000  0.000000000000000E+000        
   112.019431810000       0.111653201330000       0.000000000000000E+000        
  0.000000000000000E+000  0.000000000000000E+000  0.000000000000000E+000        
   40.7147402480000       0.259885066470000       0.000000000000000E+000        
  0.000000000000000E+000  0.000000000000000E+000  0.000000000000000E+000        
   16.0396781110000       0.000000000000000E+000  0.394229668800000             
  0.000000000000000E+000  0.000000000000000E+000  0.000000000000000E+000        
   6.50381867400000       0.000000000000000E+000  0.249982385510000             
  0.000000000000000E+000  0.000000000000000E+000  0.000000000000000E+000        
   1.54404775090000       0.000000000000000E+000  0.000000000000000E+000        
   1.00000000000000       0.000000000000000E+000  0.000000000000000E+000        
  0.612234528620000       0.000000000000000E+000  0.000000000000000E+000        
  0.000000000000000E+000   1.00000000000000       0.000000000000000E+000        
  0.240279796980000       0.000000000000000E+000  0.000000000000000E+000        
  0.000000000000000E+000  0.000000000000000E+000   1.00000000000000             
    6    3                                                                      
   80.2339004830000       6.368599913400000E-003  0.000000000000000E+000        
  0.000000000000000E+000                                                        
   18.5940107430000       4.430314353000000E-002  0.000000000000000E+000        
  0.000000000000000E+000                                                        
   5.68679026530000       0.168672487080000       0.000000000000000E+000        
  0.000000000000000E+000                                                        
   1.95110062940000       0.361663462550000       0.000000000000000E+000        
  0.000000000000000E+000                                                        
  0.669702112980000       0.000000000000000E+000  0.442029014910000             
  0.000000000000000E+000                                                        
  0.216513004100000       0.000000000000000E+000  0.000000000000000E+000        
  0.243198757300000                                                             
    2    2                                                                      
   3.10700000000000        1.00000000000000       0.000000000000000E+000        
  0.855000000000000       0.000000000000000E+000   1.00000000000000             
    1    1                                                                      
   1.91700000000000        1.00000000000000                                     
FINISH                                                                          
 
********************************************************************************
 One- and two-electron integrals over symmetry-adapted AOs are calculated.

  Spherical harmonics are used.
  
   2 types of atoms
   2 symmetry operations

   Reflection in the YZ-plane
   Reflection in the XZ-plane
  
  Integrals less than  0.10E-13 are neglected.

  Atomic type number  1 :
  -----------------------

    Nuclear charge:                        5
    number of symmetry independent atoms:  1
    highest orbital type:                  f

      1 groups of CGTOs of s type
      1 groups of CGTOs of p type
      1 groups of CGTOs of d type
      1 groups of CGTOs of f type

    nuclear coordinates (in a.u.) are :

    B #1        0.000000000000000        0.000000000000000        1.510731653167859
  
   Basis function not normalized: 
   Center (as ordered in MOL file):   1
   Angular Momentum type          : s
   Offset within angular momentum :  1
   <chi|chi>                      :    2.7917010511
   Basis function not normalized: 
   Center (as ordered in MOL file):   1
   Angular Momentum type          : s
   Offset within angular momentum :  2
   <chi|chi>                      :    1.6058044447
   Basis function not normalized: 
   Center (as ordered in MOL file):   1
   Angular Momentum type          : p
   Offset within angular momentum :  1
   <chi|chi>                      :    2.2259839559
   Basis function not normalized: 
   Center (as ordered in MOL file):   1
   Angular Momentum type          : p
   Offset within angular momentum :  2
   <chi|chi>                      :    2.1135250577
   Basis function not normalized: 
   Center (as ordered in MOL file):   1
   Angular Momentum type          : p
   Offset within angular momentum :  3
   <chi|chi>                      :    3.8755508018
  Atomic type number  2 :
  -----------------------

    Nuclear charge:                        9
    number of symmetry independent atoms:  1
    highest orbital type:                  f

      1 groups of CGTOs of s type
      1 groups of CGTOs of p type
      1 groups of CGTOs of d type
      1 groups of CGTOs of f type

    nuclear coordinates (in a.u.) are :

    F #2        0.000000000000000        0.000000000000000       -0.875447581282141
  
   Basis function not normalized: 
   Center (as ordered in MOL file):   2
   Angular Momentum type          : s
   Offset within angular momentum :  1
   <chi|chi>                      :    2.6077954182
   Basis function not normalized: 
   Center (as ordered in MOL file):   2
   Angular Momentum type          : s
   Offset within angular momentum :  2
   <chi|chi>                      :    1.6055721547
   Basis function not normalized: 
   Center (as ordered in MOL file):   2
   Angular Momentum type          : p
   Offset within angular momentum :  1
   <chi|chi>                      :    1.9347023376
   Basis function not normalized: 
   Center (as ordered in MOL file):   2
   Angular Momentum type          : p
   Offset within angular momentum :  2
   <chi|chi>                      :    2.2622949315
   Basis function not normalized: 
   Center (as ordered in MOL file):   2
   Angular Momentum type          : p
   Offset within angular momentum :  3
   <chi|chi>                      :    4.1118631160
   Internuclear distances (A) :

     for atom B #1 (coordinates :   0.00000   0.00000   1.51073)

     F #2   1     distance is  1.263

     for atom F #2 (coordinates :   0.00000   0.00000  -0.87545)


   Group multiplication table :

         1   2   3   4
         2   1   4   3
         3   4   1   2
         4   3   2   1

   Gaussian basis information :

   atom                 exponent      coefficients

 B #1  1    S   
+                 1    8564.866069   0.0002284   0.0000000   0.0000000   0.0000000   0.0000000
                  2    1284.151626   0.0017683   0.0000000   0.0000000   0.0000000   0.0000000
                  3     292.278716   0.0091407   0.0000000   0.0000000   0.0000000   0.0000000
                  4      82.775469   0.0363426   0.0000000   0.0000000   0.0000000   0.0000000
                  5      27.017939   0.1106346   0.0000000   0.0000000   0.0000000   0.0000000
                  6       9.814962   0.2336734   0.0000000   0.0000000   0.0000000   0.0000000
                  7       3.931856   0.0000000   0.4181878   0.0000000   0.0000000   0.0000000
                  8       1.659560   0.0000000   0.2232547   0.0000000   0.0000000   0.0000000
                  9       0.357630   0.0000000   0.0000000   1.0000000   0.0000000   0.0000000
                 10       0.142463   0.0000000   0.0000000   0.0000000   1.0000000   0.0000000
                 11       0.060561   0.0000000   0.0000000   0.0000000   0.0000000   1.0000000

 B #1  1    X   
+                12      22.453876   0.0050266   0.0000000   0.0000000
                 13       5.104506   0.0328017   0.0000000   0.0000000
                 14       1.498608   0.1315123   0.0000000   0.0000000
                 15       0.509278   0.3319717   0.0000000   0.0000000
                 16       0.181471   0.0000000   0.4731432   0.0000000
                 17       0.064622   0.0000000   0.0000000   0.2580278

 B #1  1    Y   
+                18      22.453876   0.0050266   0.0000000   0.0000000
                 19       5.104506   0.0328017   0.0000000   0.0000000
                 20       1.498608   0.1315123   0.0000000   0.0000000
                 21       0.509278   0.3319717   0.0000000   0.0000000
                 22       0.181471   0.0000000   0.4731432   0.0000000
                 23       0.064622   0.0000000   0.0000000   0.2580278

 B #1  1    Z   
+                24      22.453876   0.0050266   0.0000000   0.0000000
                 25       5.104506   0.0328017   0.0000000   0.0000000
                 26       1.498608   0.1315123   0.0000000   0.0000000
                 27       0.509278   0.3319717   0.0000000   0.0000000
                 28       0.181471   0.0000000   0.4731432   0.0000000
                 29       0.064622   0.0000000   0.0000000   0.2580278

 B #1  1    XX  
+                30       0.661000   1.0000000   0.0000000
                 31       0.199000   0.0000000   1.0000000

 B #1  1    XY  
+                32       0.661000   1.0000000   0.0000000
                 33       0.199000   0.0000000   1.0000000

 B #1  1    XZ  
+                34       0.661000   1.0000000   0.0000000
                 35       0.199000   0.0000000   1.0000000

 B #1  1    YY  
+                36       0.661000   1.0000000   0.0000000
                 37       0.199000   0.0000000   1.0000000

 B #1  1    YZ  
+                38       0.661000   1.0000000   0.0000000
                 39       0.199000   0.0000000   1.0000000

 B #1  1    ZZ  
+                40       0.661000   1.0000000   0.0000000
                 41       0.199000   0.0000000   1.0000000

 B #1  1    F300
+                42       0.490000   1.0000000

 B #1  1    F210
+                43       0.490000   1.0000000

 B #1  1    F201
+                44       0.490000   1.0000000

 B #1  1    F120
+                45       0.490000   1.0000000

 B #1  1    F111
+                46       0.490000   1.0000000

 B #1  1    F102
+                47       0.490000   1.0000000

 B #1  1    F030
+                48       0.490000   1.0000000

 B #1  1    F021
+                49       0.490000   1.0000000

 B #1  1    F012
+                50       0.490000   1.0000000

 B #1  1    F003
+                51       0.490000   1.0000000

 F #2  1    S   
+                52   35479.100441   0.0002155   0.0000000   0.0000000   0.0000000   0.0000000
                 53    5318.472898   0.0016701   0.0000000   0.0000000   0.0000000   0.0000000
                 54    1210.481098   0.0086733   0.0000000   0.0000000   0.0000000   0.0000000
                 55     342.855181   0.0350499   0.0000000   0.0000000   0.0000000   0.0000000
                 56     112.019432   0.1116532   0.0000000   0.0000000   0.0000000   0.0000000
                 57      40.714740   0.2598851   0.0000000   0.0000000   0.0000000   0.0000000
                 58      16.039678   0.0000000   0.3942297   0.0000000   0.0000000   0.0000000
                 59       6.503819   0.0000000   0.2499824   0.0000000   0.0000000   0.0000000
                 60       1.544048   0.0000000   0.0000000   1.0000000   0.0000000   0.0000000
                 61       0.612235   0.0000000   0.0000000   0.0000000   1.0000000   0.0000000
                 62       0.240280   0.0000000   0.0000000   0.0000000   0.0000000   1.0000000

 F #2  1    X   
+                63      80.233900   0.0063686   0.0000000   0.0000000
                 64      18.594011   0.0443031   0.0000000   0.0000000
                 65       5.686790   0.1686725   0.0000000   0.0000000
                 66       1.951101   0.3616635   0.0000000   0.0000000
                 67       0.669702   0.0000000   0.4420290   0.0000000
                 68       0.216513   0.0000000   0.0000000   0.2431988

 F #2  1    Y   
+                69      80.233900   0.0063686   0.0000000   0.0000000
                 70      18.594011   0.0443031   0.0000000   0.0000000
                 71       5.686790   0.1686725   0.0000000   0.0000000
                 72       1.951101   0.3616635   0.0000000   0.0000000
                 73       0.669702   0.0000000   0.4420290   0.0000000
                 74       0.216513   0.0000000   0.0000000   0.2431988

 F #2  1    Z   
+                75      80.233900   0.0063686   0.0000000   0.0000000
                 76      18.594011   0.0443031   0.0000000   0.0000000
                 77       5.686790   0.1686725   0.0000000   0.0000000
                 78       1.951101   0.3616635   0.0000000   0.0000000
                 79       0.669702   0.0000000   0.4420290   0.0000000
                 80       0.216513   0.0000000   0.0000000   0.2431988

 F #2  1    XX  
+                81       3.107000   1.0000000   0.0000000
                 82       0.855000   0.0000000   1.0000000

 F #2  1    XY  
+                83       3.107000   1.0000000   0.0000000
                 84       0.855000   0.0000000   1.0000000

 F #2  1    XZ  
+                85       3.107000   1.0000000   0.0000000
                 86       0.855000   0.0000000   1.0000000

 F #2  1    YY  
+                87       3.107000   1.0000000   0.0000000
                 88       0.855000   0.0000000   1.0000000

 F #2  1    YZ  
+                89       3.107000   1.0000000   0.0000000
                 90       0.855000   0.0000000   1.0000000

 F #2  1    ZZ  
+                91       3.107000   1.0000000   0.0000000
                 92       0.855000   0.0000000   1.0000000

 F #2  1    F300
+                93       1.917000   1.0000000

 F #2  1    F210
+                94       1.917000   1.0000000

 F #2  1    F201
+                95       1.917000   1.0000000

 F #2  1    F120
+                96       1.917000   1.0000000

 F #2  1    F111
+                97       1.917000   1.0000000

 F #2  1    F102
+                98       1.917000   1.0000000

 F #2  1    F030
+                99       1.917000   1.0000000

 F #2  1    F021
+               100       1.917000   1.0000000

 F #2  1    F012
+               101       1.917000   1.0000000

 F #2  1    F003
+               102       1.917000   1.0000000
 72 62
  1  2  3  4  5  6  7  8  9 10 11 12****** 13 14*** 15 16 17 18 19 20 21 22
 23 24 25 26****** 27 28*** 29 30 31 32 33 34 35*** 36 37 38 39 40 41 42***
 43 44 45 46 47 48 49*** 50 51 52 53 54 55 56*** 57 58 59 60 61 62
1

             SYMMETRY TRANSFORMATION INFO
             62 SYMMETRY ADAPTED BASIS FUNCTIONS 


          irreducible representation number 1

    1    1  B #1     1s     1   1   1.0
    2    2  B #1     1s     1   2   1.0
    3    3  B #1     1s     1   3   1.0
    4    4  B #1     1s     1   4   1.0
    5    5  B #1     1s     1   5   1.0
    6    6  B #1     2pz    1  12   1.0
    7    7  B #1     2pz    1  13   1.0
    8    8  B #1     2pz    1  14   1.0
    9    9  B #1     3d2-   3  15  -1.0  21  -1.0  25   2.0
   10   10  B #1     3d2-   3  16  -1.0  22  -1.0  26   2.0
   11   11  B #1     3d1+   2  15   1.0  21  -1.0
   12   12  B #1     3d1+   2  16   1.0  22  -1.0
   13   13  B #1     4f1-   3  29  -3.0  34  -3.0  36   2.0
   14   14  B #1     4f3+   2  29   1.0  34  -1.0
   15   15  F #2     1s     1  37   1.0
   16   16  F #2     1s     1  38   1.0
   17   17  F #2     1s     1  39   1.0
   18   18  F #2     1s     1  40   1.0
   19   19  F #2     1s     1  41   1.0
   20   20  F #2     2pz    1  48   1.0
   21   21  F #2     2pz    1  49   1.0
   22   22  F #2     2pz    1  50   1.0
   23   23  F #2     3d2-   3  51  -1.0  57  -1.0  61   2.0
   24   24  F #2     3d2-   3  52  -1.0  58  -1.0  62   2.0
   25   25  F #2     3d1+   2  51   1.0  57  -1.0
   26   26  F #2     3d1+   2  52   1.0  58  -1.0
   27   27  F #2     4f1-   3  65  -3.0  70  -3.0  72   2.0
   28   28  F #2     4f3+   2  65   1.0  70  -1.0


          irreducible representation number 2

   29    1  B #1     2px    1   6   1.0
   30    2  B #1     2px    1   7   1.0
   31    3  B #1     2px    1   8   1.0
   32    4  B #1     3d0    1  19   1.0
   33    5  B #1     3d0    1  20   1.0
   34    6  B #1     4f3-   3  27  -1.0  30  -1.0  32   4.0
   35    7  B #1     4f0    2  27   1.0  30  -3.0
   36    8  F #2     2px    1  42   1.0
   37    9  F #2     2px    1  43   1.0
   38   10  F #2     2px    1  44   1.0
   39   11  F #2     3d0    1  55   1.0
   40   12  F #2     3d0    1  56   1.0
   41   13  F #2     4f3-   3  63  -1.0  66  -1.0  68   4.0
   42   14  F #2     4f0    2  63   1.0  66  -3.0


          irreducible representation number 3

   43    1  B #1     2py    1   9   1.0
   44    2  B #1     2py    1  10   1.0
   45    3  B #1     2py    1  11   1.0
   46    4  B #1     3d2+   1  23   1.0
   47    5  B #1     3d2+   1  24   1.0
   48    6  B #1     4f2-   3  28  -1.0  33  -1.0  35   4.0
   49    7  B #1     4f2+   2  28   3.0  33  -1.0
   50    8  F #2     2py    1  45   1.0
   51    9  F #2     2py    1  46   1.0
   52   10  F #2     2py    1  47   1.0
   53   11  F #2     3d2+   1  59   1.0
   54   12  F #2     3d2+   1  60   1.0
   55   13  F #2     4f2-   3  64  -1.0  69  -1.0  71   4.0
   56   14  F #2     4f2+   2  64   3.0  69  -1.0


          irreducible representation number 4

   57    1  B #1     3d1-   1  17   1.0
   58    2  B #1     3d1-   1  18   1.0
   59    3  B #1     4f1+   1  31   1.0
   60    4  F #2     3d1-   1  53   1.0
   61    5  F #2     3d1-   1  54   1.0
   62    6  F #2     4f1+   1  67   1.0
  Nuclear repulsion energy :   18.8586001212 a.u.
  required memory for a1 array                5029908  words 
  required memory for a2 array                2103164  words 
 @GETMEM-I,  Allocated      69 MB of main memory.
  @MOLECU-I, One electron integrals (CPU/WALL):        0.03/       0.04 seconds.
  @TWOEL-I,      53031 integrals of symmetry type  I I I I
  @TWOEL-I,     154471 integrals of symmetry type  I J I J
  @TWOEL-I,      86881 integrals of symmetry type  I I J J
  @TWOEL-I,      86179 integrals of symmetry type  I J K L
  @TWOEL-I, Total number of 2-e integrals     380562.
  @MOLECU-I, Two electron integrals (CPU/WALL):        0.34/       0.35 seconds.
  @CHECKOUT-I, Total execution time (CPU/WALL):        0.63/       0.76 seconds.
--executable xvmol finished with status     0 in        0.81 seconds (walltime).
 --invoking executable--
/home/nike/cfour_v2.00beta/cfour_v2.00beta/bin/xvmol2ja
 @GETMEM-I,  Allocated   11444 MB of main memory.
  @CHECKOUT-I, Total execution time (CPU/WALL):        0.01/       0.06 seconds.
--executable xvmol2ja finished with status     0 in        0.10 seconds (walltime).
 --invoking executable--
/home/nike/cfour_v2.00beta/cfour_v2.00beta/bin/xvscf
  There are   62 functions in the AO basis.

  There are 4 irreducible representations.

       Irrep        # of functions
         1                 28
         2                 14
         3                 14
         4                  6


  Parameters for SCF calculation: 
        SCF reference function:  RHF  
  Maximum number of iterations: ****
     Full symmetry point group: CXv 
     Computational point group: C2v 
        Initial density matrix: MOREAD                 
     SCF convergence tolerance: 10**(-12)
  DIIS convergence acceleration:  ON
          Latest start for DIIS:   5
                     DIIS order:   6

  Memory information:     211448 words required.
  Fock matrices are constructed from AO integral file.
 @GETMEM-I,  Allocated       1 MB of main memory.
  Initialization and symmetry analysis required      0.017 seconds.

  @INITGES-I, Occupancies from core Hamiltonian:

          Alpha population by irrep:   5    1    1    0
           Beta population by irrep:   5    1    1    0


 total no. of electrons in initial guess :  0.000000000000000E+000
  --------------------------------------------------------------------
  Iteration         Total Energy            Largest Density Difference
  --------------------------------------------------------------------
       0            18.858600121198450              0.0000000000D+00
   current occupation vector 
     5  1  1  0
     5  1  1  0
  processed                  53031  ao basis integrals from 
                    89  buffers.
  processed                  86881  ao basis integrals from 
                   145  buffers.
  processed                 154471  ao basis integrals from 
                   258  buffers.
       1          -108.035695520680434              0.3756856939D+01
   current occupation vector 
     5  1  1  0
     5  1  1  0
  processed                  53031  ao basis integrals from 
                    89  buffers.
  processed                  86881  ao basis integrals from 
                   145  buffers.
  processed                 154471  ao basis integrals from 
                   258  buffers.
       2          -103.641725646365614              0.1347450364D+02
   current occupation vector 
     5  1  1  0
     5  1  1  0
  processed                  53031  ao basis integrals from 
                    89  buffers.
  processed                  86881  ao basis integrals from 
                   145  buffers.
  processed                 154471  ao basis integrals from 
                   258  buffers.
       3          -115.043950918901189              0.1370021385D+02
   current occupation vector 
     5  1  1  0
     5  1  1  0
  processed                  53031  ao basis integrals from 
                    89  buffers.
  processed                  86881  ao basis integrals from 
                   145  buffers.
  processed                 154471  ao basis integrals from 
                   258  buffers.
       4          -106.772183432389795              0.5218946217D+01
   current occupation vector 
     5  1  1  0
     5  1  1  0
 
 sum over diagonal and offdiagdiagonal of C(T)*S*C for irrep
                     1
 -1.584732345349948E-012 -4.708763947792668E-013
 reorthoganalization of MOs is carried out
 sum over diagonal and offdiagdiagonal of C(T)*S*C for irrep
                     1
  5.839773109528323E-014 -3.750246007439557E-014
 
 sum over diagonal and offdiagdiagonal of C(T)*S*C for irrep
                     2
 -1.731947918415244E-014  3.239910823354763E-014
 reorthoganalization of MOs is carried out
 sum over diagonal and offdiagdiagonal of C(T)*S*C for irrep
                     2
 -6.661338147750939E-016 -1.111306337008713E-015
 
 sum over diagonal and offdiagdiagonal of C(T)*S*C for irrep
                     3
 -1.665334536937735E-015  7.395789475184726E-015
 reorthoganalization of MOs is carried out
 sum over diagonal and offdiagdiagonal of C(T)*S*C for irrep
                     3
 -8.881784197001252E-016 -2.141279394000714E-015
 
 sum over diagonal and offdiagdiagonal of C(T)*S*C for irrep
                     4
  8.770761894538737E-015 -2.715561692407842E-015
 reorthoganalization of MOs is carried out
 sum over diagonal and offdiagdiagonal of C(T)*S*C for irrep
                     4
  0.000000000000000E+000  3.979956822678620E-017
  processed                  53031  ao basis integrals from 
                    89  buffers.
  processed                  86881  ao basis integrals from 
                   145  buffers.
  processed                 154471  ao basis integrals from 
                   258  buffers.
       5          -115.230561020212079              0.5230691894D+01
   current occupation vector 
     5  1  1  0
     5  1  1  0
  processed                  53031  ao basis integrals from 
                    89  buffers.
  processed                  86881  ao basis integrals from 
                   145  buffers.
  processed                 154471  ao basis integrals from 
                   258  buffers.
       6          -120.254664361266080              0.1718451943D+01
   current occupation vector 
     5  1  1  0
     5  1  1  0
  processed                  53031  ao basis integrals from 
                    89  buffers.
  processed                  86881  ao basis integrals from 
                   145  buffers.
  processed                 154471  ao basis integrals from 
                   258  buffers.
       7          -123.190668209660387              0.7946727182D+00
   current occupation vector 
     5  1  1  0
     5  1  1  0
  processed                  53031  ao basis integrals from 
                    89  buffers.
  processed                  86881  ao basis integrals from 
                   145  buffers.
  processed                 154471  ao basis integrals from 
                   258  buffers.
       8          -124.078450038005926              0.4532696456D+00
   current occupation vector 
     5  1  1  0
     5  1  1  0
  processed                  53031  ao basis integrals from 
                    89  buffers.
  processed                  86881  ao basis integrals from 
                   145  buffers.
  processed                 154471  ao basis integrals from 
                   258  buffers.
       9          -124.161060762146420              0.2699028457D+00
   current occupation vector 
     5  1  1  0
     5  1  1  0
 
 sum over diagonal and offdiagdiagonal of C(T)*S*C for irrep
                     1
 -1.578515096412048E-012 -4.466684974657786E-012
 reorthoganalization of MOs is carried out
 sum over diagonal and offdiagdiagonal of C(T)*S*C for irrep
                     1
  1.709743457922741E-014  2.028959004291703E-013
 
 sum over diagonal and offdiagdiagonal of C(T)*S*C for irrep
                     2
 -2.131628207280301E-014 -3.710238172233403E-014
 reorthoganalization of MOs is carried out
 sum over diagonal and offdiagdiagonal of C(T)*S*C for irrep
                     2
 -1.554312234475219E-015  1.076869711160160E-015
 
 sum over diagonal and offdiagdiagonal of C(T)*S*C for irrep
                     3
  1.776356839400250E-014 -2.282235017733481E-014
 reorthoganalization of MOs is carried out
 sum over diagonal and offdiagdiagonal of C(T)*S*C for irrep
                     3
  5.551115123125783E-016  1.258754544586369E-015
 
 sum over diagonal and offdiagdiagonal of C(T)*S*C for irrep
                     4
 -3.774758283725532E-015  5.746198761819578E-015
 reorthoganalization of MOs is carried out
 sum over diagonal and offdiagdiagonal of C(T)*S*C for irrep
                     4
  5.551115123125783E-016 -6.353299267156759E-016
  processed                  53031  ao basis integrals from 
                    89  buffers.
  processed                  86881  ao basis integrals from 
                   145  buffers.
  processed                 154471  ao basis integrals from 
                   258  buffers.
      10          -124.162193732331971              0.1597832794D-01
   current occupation vector 
     5  1  1  0
     5  1  1  0
  processed                  53031  ao basis integrals from 
                    89  buffers.
  processed                  86881  ao basis integrals from 
                   145  buffers.
  processed                 154471  ao basis integrals from 
                   258  buffers.
      11          -124.162252710248097              0.5071264033D-02
   current occupation vector 
     5  1  1  0
     5  1  1  0
  processed                  53031  ao basis integrals from 
                    89  buffers.
  processed                  86881  ao basis integrals from 
                   145  buffers.
  processed                 154471  ao basis integrals from 
                   258  buffers.
      12          -124.162254999089882              0.1026093623D-02
   current occupation vector 
     5  1  1  0
     5  1  1  0
  processed                  53031  ao basis integrals from 
                    89  buffers.
  processed                  86881  ao basis integrals from 
                   145  buffers.
  processed                 154471  ao basis integrals from 
                   258  buffers.
      13          -124.162255046381077              0.4186599585D-03
   current occupation vector 
     5  1  1  0
     5  1  1  0
  processed                  53031  ao basis integrals from 
                    89  buffers.
  processed                  86881  ao basis integrals from 
                   145  buffers.
  processed                 154471  ao basis integrals from 
                   258  buffers.
      14          -124.162255047629728              0.5659936409D-04
   current occupation vector 
     5  1  1  0
     5  1  1  0
 
 sum over diagonal and offdiagdiagonal of C(T)*S*C for irrep
                     1
 -1.587063813701661E-012 -4.206213216711911E-012
 reorthoganalization of MOs is carried out
 sum over diagonal and offdiagdiagonal of C(T)*S*C for irrep
                     1
 -4.019007349143067E-014 -3.995627561027265E-014
 
 sum over diagonal and offdiagdiagonal of C(T)*S*C for irrep
                     2
 -1.831867990631508E-014 -3.340495429735857E-014
 reorthoganalization of MOs is carried out
 sum over diagonal and offdiagdiagonal of C(T)*S*C for irrep
                     2
 -1.110223024625157E-016  1.399325175614132E-016
 
 sum over diagonal and offdiagdiagonal of C(T)*S*C for irrep
                     3
  8.437694987151190E-015 -2.110813959575780E-014
 reorthoganalization of MOs is carried out
 sum over diagonal and offdiagdiagonal of C(T)*S*C for irrep
                     3
  3.330669073875470E-016  3.399227045826806E-016
 
 sum over diagonal and offdiagdiagonal of C(T)*S*C for irrep
                     4
 -2.997602166487923E-015  2.889707685603354E-015
 reorthoganalization of MOs is carried out
 sum over diagonal and offdiagdiagonal of C(T)*S*C for irrep
                     4
  0.000000000000000E+000  9.623383219369751E-017
  processed                  53031  ao basis integrals from 
                    89  buffers.
  processed                  86881  ao basis integrals from 
                   145  buffers.
  processed                 154471  ao basis integrals from 
                   258  buffers.
      15          -124.162255047669007              0.8662329473D-05
   current occupation vector 
     5  1  1  0
     5  1  1  0
  processed                  53031  ao basis integrals from 
                    89  buffers.
  processed                  86881  ao basis integrals from 
                   145  buffers.
  processed                 154471  ao basis integrals from 
                   258  buffers.
      16          -124.162255047671906              0.9402562117D-06
   current occupation vector 
     5  1  1  0
     5  1  1  0
  processed                  53031  ao basis integrals from 
                    89  buffers.
  processed                  86881  ao basis integrals from 
                   145  buffers.
  processed                 154471  ao basis integrals from 
                   258  buffers.
      17          -124.162255047671394              0.1534528043D-06
   current occupation vector 
     5  1  1  0
     5  1  1  0
  processed                  53031  ao basis integrals from 
                    89  buffers.
  processed                  86881  ao basis integrals from 
                   145  buffers.
  processed                 154471  ao basis integrals from 
                   258  buffers.
      18          -124.162255047671167              0.3694115214D-07
   current occupation vector 
     5  1  1  0
     5  1  1  0
  processed                  53031  ao basis integrals from 
                    89  buffers.
  processed                  86881  ao basis integrals from 
                   145  buffers.
  processed                 154471  ao basis integrals from 
                   258  buffers.
      19          -124.162255047672133              0.2243302727D-07
   current occupation vector 
     5  1  1  0
     5  1  1  0
 
 sum over diagonal and offdiagdiagonal of C(T)*S*C for irrep
                     1
 -1.555422457499844E-012 -4.086131863851424E-012
 reorthoganalization of MOs is carried out
 sum over diagonal and offdiagdiagonal of C(T)*S*C for irrep
                     1
 -7.993605777301127E-015 -1.714663717837853E-013
 
 sum over diagonal and offdiagdiagonal of C(T)*S*C for irrep
                     2
 -1.354472090042691E-014 -3.319173197473058E-014
 reorthoganalization of MOs is carried out
 sum over diagonal and offdiagdiagonal of C(T)*S*C for irrep
                     2
 -2.220446049250313E-016  3.717052051954579E-015
 
 sum over diagonal and offdiagdiagonal of C(T)*S*C for irrep
                     3
  3.663735981263017E-015 -1.549357076789766E-014
 reorthoganalization of MOs is carried out
 sum over diagonal and offdiagdiagonal of C(T)*S*C for irrep
                     3
 -1.110223024625157E-016 -1.398131540489224E-015
 
 sum over diagonal and offdiagdiagonal of C(T)*S*C for irrep
                     4
 -3.108624468950438E-015 -1.417159372435493E-015
 reorthoganalization of MOs is carried out
 sum over diagonal and offdiagdiagonal of C(T)*S*C for irrep
                     4
  3.330669073875470E-016  8.741708310703404E-016
  processed                  53031  ao basis integrals from 
                    89  buffers.
  processed                  86881  ao basis integrals from 
                   145  buffers.
  processed                 154471  ao basis integrals from 
                   258  buffers.
      20          -124.162255047671678              0.4679493681D-08
   current occupation vector 
     5  1  1  0
     5  1  1  0
  processed                  53031  ao basis integrals from 
                    89  buffers.
  processed                  86881  ao basis integrals from 
                   145  buffers.
  processed                 154471  ao basis integrals from 
                   258  buffers.
      21          -124.162255047671536              0.4727331859D-09
   current occupation vector 
     5  1  1  0
     5  1  1  0
  processed                  53031  ao basis integrals from 
                    89  buffers.
  processed                  86881  ao basis integrals from 
                   145  buffers.
  processed                 154471  ao basis integrals from 
                   258  buffers.
      22          -124.162255047671479              0.1213917855D-09
   current occupation vector 
     5  1  1  0
     5  1  1  0
  processed                  53031  ao basis integrals from 
                    89  buffers.
  processed                  86881  ao basis integrals from 
                   145  buffers.
  processed                 154471  ao basis integrals from 
                   258  buffers.
      23          -124.162255047671820              0.1605393596D-10
   current occupation vector 
     5  1  1  0
     5  1  1  0
  processed                  53031  ao basis integrals from 
                    89  buffers.
  processed                  86881  ao basis integrals from 
                   145  buffers.
  processed                 154471  ao basis integrals from 
                   258  buffers.
      24          -124.162255047671849              0.1250943793D-11
   current occupation vector 
     5  1  1  0
     5  1  1  0
 
 sum over diagonal and offdiagdiagonal of C(T)*S*C for irrep
                     1
 -1.569855356819971E-012 -3.995710862152130E-012
 reorthoganalization of MOs is carried out
 sum over diagonal and offdiagdiagonal of C(T)*S*C for irrep
                     1
 -2.509104035652854E-014 -2.082981844878780E-013
 
 sum over diagonal and offdiagdiagonal of C(T)*S*C for irrep
                     2
 -1.321165399303936E-014 -2.816044880559603E-014
 reorthoganalization of MOs is carried out
 sum over diagonal and offdiagdiagonal of C(T)*S*C for irrep
                     2
 -2.664535259100376E-015 -8.801376353533672E-016
 
 sum over diagonal and offdiagdiagonal of C(T)*S*C for irrep
                     3
  1.620925615952729E-014 -1.628403688142976E-014
 reorthoganalization of MOs is carried out
 sum over diagonal and offdiagdiagonal of C(T)*S*C for irrep
                     3
  1.110223024625157E-016 -1.640664536917304E-015
 
 sum over diagonal and offdiagdiagonal of C(T)*S*C for irrep
                     4
  3.552713678800501E-015  1.440808917701453E-015
 reorthoganalization of MOs is carried out
 sum over diagonal and offdiagdiagonal of C(T)*S*C for irrep
                     4
 -2.220446049250313E-016 -3.612988182939518E-016
  processed                  53031  ao basis integrals from 
                    89  buffers.
  processed                  86881  ao basis integrals from 
                   145  buffers.
  processed                 154471  ao basis integrals from 
                   258  buffers.
      25          -124.162255047671508              0.2293609747D-11
   current occupation vector 
     5  1  1  0
     5  1  1  0

  SCF has converged.

 Density matrix saved to file den.dat
 total electron number:   14.0000000000001     
  processed                  53031  ao basis integrals from 
                    89  buffers.
  processed                  86881  ao basis integrals from 
                   145  buffers.
  processed                 154471  ao basis integrals from 
                   258  buffers.
     E(SCF)=      -124.162255047671877              0.3397837567D-12


  ORBITAL EIGENVECTORS

  SYMMETRY BLOCK 1 (ALPHA)

                          MO #  1       MO #  2       MO #  3       MO #  4

    BASIS/ORB E          -26.37757      -7.70993      -1.69955      -0.85493
                        ----------    ----------    ----------    ----------
    1; B #1               -0.00000       0.49651       0.03047       0.05318
    2; B #1                0.00012       0.58573       0.05733       0.10712
    3; B #1               -0.00072       0.01498      -0.09057      -0.20421
    4; B #1                0.00524      -0.00114      -0.00901      -0.07874
    5; B #1               -0.00044       0.00099      -0.00373       0.00288
    6; B #1                0.00061      -0.00489       0.09132       0.16038
    7; B #1               -0.00341      -0.00211       0.01705       0.04546
    8; B #1               -0.00006      -0.00008      -0.00022      -0.01203
    9; B #1               -0.00011       0.00069      -0.00736      -0.00905
   10; B #1                0.00034       0.00041      -0.00213      -0.00306
   11; B #1                0.00000       0.00000       0.00000      -0.00000
   12; B #1               -0.00000      -0.00000       0.00000       0.00000
   13; B #1               -0.00001      -0.00017       0.00109       0.00098
   14; B #1                0.00000       0.00000       0.00000       0.00000
   15; F #2               -0.42576      -0.00028       0.10124      -0.02441
   16; F #2               -0.65122      -0.00075       0.25212      -0.06194
   17; F #2               -0.02330       0.00152      -0.35135       0.09895
   18; F #2                0.00947      -0.00138      -0.50616       0.13273
   19; F #2               -0.00904      -0.00470      -0.17062       0.16063
   20; F #2               -0.00099       0.00152      -0.05506      -0.44603
   21; F #2                0.00088      -0.00175      -0.05057      -0.37740
   22; F #2               -0.00248      -0.00146      -0.00591      -0.15611
   23; F #2               -0.00002       0.00011      -0.00075      -0.00181
   24; F #2                0.00004      -0.00020      -0.00296      -0.00602
   25; F #2                0.00000       0.00000      -0.00000       0.00000
   26; F #2                0.00000      -0.00000       0.00000      -0.00000
   27; F #2                0.00001       0.00002      -0.00035      -0.00059
   28; F #2                0.00000      -0.00000      -0.00000      -0.00000


                          MO #  5       MO #  6       MO #  7       MO #  8

    BASIS/ORB E           -0.40490       0.13609       0.19023       0.49680
                        ----------    ----------    ----------    ----------
    1; B #1                0.08382       0.01437       0.04349       0.01161
    2; B #1                0.17787       0.02608       0.07542       0.02277
    3; B #1               -0.32326       0.19399       0.15957       0.28328
    4; B #1               -0.45115      -2.34344      -2.00605      -2.25979
    5; B #1               -0.23783       1.82249       1.61157       0.92734
    6; B #1               -0.24605      -0.09555      -0.05660       0.21183
    7; B #1               -0.20964       0.89703      -0.12590       1.73793
    8; B #1               -0.05633      -1.06165       0.92781      -0.88275
    9; B #1                0.00761      -0.01491       0.00843      -0.00928
   10; B #1                0.00978      -0.08627      -0.02344       0.10110
   11; B #1                0.00000      -0.00000       0.00000       0.00000
   12; B #1                0.00000       0.00000      -0.00000      -0.00000
   13; B #1               -0.00073       0.00697      -0.00014       0.00153
   14; B #1                0.00000       0.00000       0.00000       0.00000
   15; F #2               -0.00980       0.01714      -0.00866      -0.02158
   16; F #2               -0.02506       0.04504      -0.02380      -0.05403
   17; F #2                0.03961      -0.08813       0.05917       0.06279
   18; F #2                0.05944      -0.07634      -0.03927       0.20790
   19; F #2                0.00398       0.68640       0.52154       0.88495
   20; F #2                0.10856       0.01296       0.04063       0.18477
   21; F #2                0.08925       0.05027       0.02763       0.26749
   22; F #2                0.04476       0.61926       0.15261       0.69626
   23; F #2                0.00049      -0.00099       0.00022      -0.00166
   24; F #2                0.00038       0.00662      -0.00238       0.01042
   25; F #2                0.00000      -0.00000      -0.00000      -0.00000
   26; F #2               -0.00000       0.00000       0.00000      -0.00000
   27; F #2                0.00015       0.00014      -0.00012       0.00062
   28; F #2                0.00000       0.00000       0.00000      -0.00000


                          MO #  9       MO # 10       MO # 11       MO # 12

    BASIS/ORB E            0.53875       0.58884       0.82626       0.95870
                        ----------    ----------    ----------    ----------
    1; B #1               -0.00000       0.00623       0.07199       0.11037
    2; B #1                0.00000       0.02902       0.19578       0.32848
    3; B #1               -0.00000       0.33510      -2.16049      -1.91853
    4; B #1                0.00000      -7.56615       5.19791       2.74048
    5; B #1               -0.00000       1.45751      -0.97548      -1.36311
    6; B #1                0.00000       0.15615       0.27230      -0.16229
    7; B #1               -0.00000       5.27013      -2.93751       0.83296
    8; B #1                0.00000      -0.81149      -0.01107      -0.07450
    9; B #1               -0.00000      -0.01510       0.03399       0.02544
   10; B #1                0.00000      -0.63487       0.51842      -0.24214
   11; B #1                0.02488       0.00000       0.00000       0.00000
   12; B #1               -0.51128      -0.00000       0.00000      -0.00000
   13; B #1               -0.00000       0.02017      -0.03526       0.00708
   14; B #1                0.01251       0.00000      -0.00000      -0.00000
   15; F #2                0.00000      -0.03302       0.00083      -0.01598
   16; F #2                0.00000      -0.08698      -0.00238      -0.03648
   17; F #2               -0.00000       0.17373       0.08788      -0.02200
   18; F #2               -0.00000      -0.13393      -0.38415       0.61345
   19; F #2               -0.00000       7.04822      -3.78373       0.17285
   20; F #2               -0.00000      -0.08508      -0.00322       0.19293
   21; F #2               -0.00000      -0.08477      -0.62327       0.50196
   22; F #2               -0.00000       3.71219      -0.04855      -0.80327
   23; F #2                0.00000      -0.00485      -0.00362       0.00039
   24; F #2               -0.00000       0.02574      -0.03857      -0.00413
   25; F #2               -0.00277      -0.00000       0.00000       0.00000
   26; F #2               -0.00929       0.00000      -0.00000       0.00000
   27; F #2                0.00000       0.00038      -0.00098       0.00007
   28; F #2               -0.00039       0.00000      -0.00000       0.00000


                          MO # 13       MO # 14       MO # 15       MO # 16

    BASIS/ORB E            1.10836       1.40259       1.76548       2.03125
                        ----------    ----------    ----------    ----------
    1; B #1                0.00302       0.01170       0.00000       0.00000
    2; B #1               -0.03760       0.05129      -0.00000      -0.00000
    3; B #1                0.42286       0.17370      -0.00000       0.00000
    4; B #1               -0.06448     -10.92879       0.00000       0.00000
    5; B #1               -0.01319       1.11794      -0.00000      -0.00000
    6; B #1                1.09649      -0.16488      -0.00000      -0.00000
    7; B #1               -1.54486       8.27657      -0.00000      -0.00000
    8; B #1                0.73027      -0.41895      -0.00000       0.00000
    9; B #1                0.06741      -0.05037      -0.00000      -0.00000
   10; B #1               -0.07741      -0.81023       0.00000       0.00000
   11; B #1                0.00000       0.00000       0.10605       0.58551
   12; B #1                0.00000      -0.00000      -0.10604      -0.30029
   13; B #1               -0.01854       0.01287      -0.00000       0.00000
   14; B #1               -0.00000       0.00000      -0.39238       0.10346
   15; F #2               -0.00668       0.04928       0.00000       0.00000
   16; F #2               -0.02631       0.10070      -0.00000      -0.00000
   17; F #2                0.17595       0.28451       0.00000      -0.00000
   18; F #2               -0.50151      -3.61151      -0.00000       0.00000
   19; F #2                0.09192      14.87869      -0.00000      -0.00000
   20; F #2                0.26691       0.02705      -0.00000      -0.00000
   21; F #2                0.13706       0.26305      -0.00000      -0.00000
   22; F #2               -0.54698       4.81363      -0.00000      -0.00000
   23; F #2               -0.00009      -0.00577      -0.00000       0.00000
   24; F #2               -0.05782       0.01628      -0.00000      -0.00000
   25; F #2                0.00000      -0.00000       0.00159      -0.00084
   26; F #2                0.00000       0.00000       0.19708       0.00381
   27; F #2               -0.00196       0.00125      -0.00000       0.00000
   28; F #2               -0.00000       0.00000       0.00128       0.00568


                          MO # 17       MO # 18       MO # 19       MO # 20

    BASIS/ORB E            2.15540       2.55839       2.59394       3.09724
                        ----------    ----------    ----------    ----------
    1; B #1                0.00572       0.00000       0.04238       0.03972
    2; B #1                0.04762       0.00000       0.10465       0.15500
    3; B #1                0.14070       0.00000       0.20465      -1.10515
    4; B #1               -3.48394      -0.00000      -3.00290      -3.09681
    5; B #1                0.27888       0.00000       0.42283       0.51196
    6; B #1                0.14773       0.00000       0.28217       0.87290
    7; B #1                2.77808       0.00000       2.76104       2.37281
    8; B #1               -0.02729      -0.00000      -0.26667      -0.33528
    9; B #1                0.17460      -0.00000      -0.35379      -0.27833
   10; B #1               -0.50353      -0.00000      -0.31513      -0.12882
   11; B #1                0.00000       0.06408      -0.00000       0.00000
   12; B #1               -0.00000       0.05429      -0.00000      -0.00000
   13; B #1                0.13480       0.00000       0.16515       0.04919
   14; B #1               -0.00000      -0.33727       0.00000      -0.00000
   15; F #2                0.02347      -0.00000      -0.01455      -0.00432
   16; F #2                0.06908      -0.00000      -0.02248      -0.00840
   17; F #2               -0.23800      -0.00000      -0.30471      -0.04346
   18; F #2                0.29857       0.00000       2.03283      -0.10619
   19; F #2                4.23261       0.00000       2.36655       4.10722
   20; F #2               -0.08985      -0.00000      -0.02164       0.58484
   21; F #2                0.36140       0.00000       1.46079       0.03531
   22; F #2                1.05126       0.00000       0.13814       2.12333
   23; F #2                0.00231      -0.00000      -0.01213      -0.00469
   24; F #2                0.06058      -0.00000      -0.04455       0.34637
   25; F #2                0.00000       0.00327      -0.00000      -0.00000
   26; F #2                0.00000      -0.49926       0.00000      -0.00000
   27; F #2               -0.00125       0.00000       0.00221       0.00060
   28; F #2               -0.00000       0.00322      -0.00000       0.00000


                          MO # 21       MO # 22       MO # 23       MO # 24

    BASIS/ORB E            4.27950       4.76567       7.41293       7.68352
                        ----------    ----------    ----------    ----------
    1; B #1                0.04416       0.05318       0.00000       0.04835
    2; B #1                0.13673       0.14996       0.00000       0.07677
    3; B #1               -0.83703      -1.04143      -0.00000      -0.58903
    4; B #1               -5.09151       2.99511      -0.00000      -0.04503
    5; B #1                0.37547      -0.25190      -0.00000      -0.03465
    6; B #1                0.83043       0.94884       0.00000       0.58425
    7; B #1                4.02866      -1.74762       0.00000       0.28685
    8; B #1               -0.07788      -0.08204      -0.00000      -0.03459
    9; B #1               -0.17831      -0.22296      -0.00000      -0.15376
   10; B #1               -0.41418       0.19513      -0.00000      -0.03017
[...]
   Norm of T1AA vector (       95 symmetry allowed elements):  0.0504999122.
-----------------------------------------------------------------------------
   Largest T2 amplitudes for spin case AB:
       _       _                 _       _                 _       _
   i   j   a   b             i   j   a   b             i   j   a   b
-----------------------------------------------------------------------------
[  3   3  29  29]-0.08577 [  3   3  42  42]-0.08577 [  3   3  30  29]-0.06212
[  3   3  29  30]-0.06212 [  3   3  43  42]-0.06212 [  3   3  42  43]-0.06212
[  3   3  30  30]-0.04850 [  3   3  43  43]-0.04850 [  3   3   8   8]-0.04100
[  3   3   8   6] 0.02583 [  3   3   6   8] 0.02583 [  3   3   7   7]-0.02531
[  3   3   6   6]-0.02008 [  5   5  42  42]-0.01985 [  4   4  29  29]-0.01985
-----------------------------------------------------------------------------
   Norm of T2AB vector (    20209 symmetry allowed elements):  0.3070421894.
-----------------------------------------------------------------------------
  W(mnij) AB contribution =  0.0588698274 a.u.
  W(abef) AB contribution =  0.0725163556 a.u.
  W(mbej) AB contribution = -0.1810557672 a.u.
   After  11 iterations, amplitude changes are:
    -------------------------------------------------------------------
                 Spin      RMS          Max.      Max. change for
     Amplitude   Case     Change       Change       i    j    a    b
    -------------------------------------------------------------------
        T1        AA    0.0000000056-0.0000002796    5        42
        T2        AA    0.0000000001-0.0000000555    5    4   42   29
        T2        AB    0.0000000001-0.0000004060    3    3   42   42
    -------------------------------------------------------------------
   The AA contribution to the correlation energy is:   -0.0353374 a.u.
   The AB contribution to the correlation energy is:   -0.2620803 a.u.
   The total correlation energy is -0.332755137591 a.u.
   The total correlation energy is -0.332755137591 a.u.
  Current DIIS expansion coefficients : 
 [   1] 1.0063301932 [   2] 0.0038018594 [   3] 0.0095524457 [   4]-0.1283014182
 [   5] 0.1086169200
  Convergence information after    11 iterations: 
  Largest element of residual vector : -0.40604967E-06.
  Largest element of DIIS residual   : -0.36351971E-06.
  W(mnij) AB contribution =  0.0588700576 a.u.
  W(abef) AB contribution =  0.0725166181 a.u.
  W(mbej) AB contribution = -0.1810566565 a.u.
   After  12 iterations, amplitude changes are:
    -------------------------------------------------------------------
                 Spin      RMS          Max.      Max. change for
     Amplitude   Case     Change       Change       i    j    a    b
    -------------------------------------------------------------------
        T1        AA    0.0000000013 0.0000000567    3         8
        T2        AA    0.0000000000 0.0000000184    5    4   42   29
        T2        AB    0.0000000000-0.0000001865    3    3   42   42
    -------------------------------------------------------------------
   The AA contribution to the correlation energy is:   -0.0353374 a.u.
   The AB contribution to the correlation energy is:   -0.2620804 a.u.
   The total correlation energy is -0.332755164485 a.u.
   The total correlation energy is -0.332755164485 a.u.
  Current DIIS expansion coefficients : 
 [   1]-0.1801668800 [   2] 1.2426694328 [   3] 0.0087555859 [   4] 0.0052592518
 [   5]-0.0765173904
  Convergence information after    12 iterations: 
  Largest element of residual vector : -0.18646882E-06.
  Largest element of DIIS residual   : -0.13250630E-06.
  W(mnij) AB contribution =  0.0588701128 a.u.
  W(abef) AB contribution =  0.0725166876 a.u.
  W(mbej) AB contribution = -0.1810569057 a.u.
   After  13 iterations, amplitude changes are:
    -------------------------------------------------------------------
                 Spin      RMS          Max.      Max. change for
     Amplitude   Case     Change       Change       i    j    a    b
    -------------------------------------------------------------------
        T1        AA    0.0000000009 0.0000000417    3         7
        T2        AA    0.0000000000-0.0000000124    5    4   42   29
        T2        AB    0.0000000000-0.0000000703    3    3   42   42
    -------------------------------------------------------------------
   The AA contribution to the correlation energy is:   -0.0353374 a.u.
   The AB contribution to the correlation energy is:   -0.2620804 a.u.
   The total correlation energy is -0.332755187239 a.u.
   The total correlation energy is -0.332755187239 a.u.
  Current DIIS expansion coefficients : 
 [   1]-0.1140446394 [   2]-0.0801144540 [   3] 1.1769031772 [   4] 0.0003120531
 [   5] 0.0169438631
  Convergence information after    13 iterations: 
  Largest element of residual vector : -0.70258284E-07.
  Largest element of DIIS residual   :  0.40747245E-07.
  W(mnij) AB contribution =  0.0588701364 a.u.
  W(abef) AB contribution =  0.0725167168 a.u.
  W(mbej) AB contribution = -0.1810569978 a.u.
   After  14 iterations, amplitude changes are:
    -------------------------------------------------------------------
                 Spin      RMS          Max.      Max. change for
     Amplitude   Case     Change       Change       i    j    a    b
    -------------------------------------------------------------------
        T1        AA    0.0000000003 0.0000000196    3         7
        T2        AA    0.0000000000 0.0000000015    4    3   30    8
        T2        AB    0.0000000000-0.0000000164    3    3   42   42
    -------------------------------------------------------------------
   The AA contribution to the correlation energy is:   -0.0353374 a.u.
   The AB contribution to the correlation energy is:   -0.2620804 a.u.
   The total correlation energy is -0.332755188084 a.u.
   The total correlation energy is -0.332755188084 a.u.
  Current DIIS expansion coefficients : 
 [   1] 0.0049942641 [   2]-0.0707259771 [   3]-0.1055769783 [   4] 1.1644381576
 [   5] 0.0068705337
  Convergence information after    14 iterations: 
  Largest element of residual vector :  0.19627418E-07.
  Largest element of DIIS residual   :  0.15565101E-07.
  W(mnij) AB contribution =  0.0588701368 a.u.
  W(abef) AB contribution =  0.0725167192 a.u.
  W(mbej) AB contribution = -0.1810570045 a.u.
   After  15 iterations, amplitude changes are:
    -------------------------------------------------------------------
                 Spin      RMS          Max.      Max. change for
     Amplitude   Case     Change       Change       i    j    a    b
    -------------------------------------------------------------------
        T1        AA    0.0000000001 0.0000000076    3         7
        T2        AA    0.0000000000-0.0000000007    5    4   42   29
        T2        AB    0.0000000000-0.0000000036    3    3   42   42
    -------------------------------------------------------------------
   The AA contribution to the correlation energy is:   -0.0353374 a.u.
   The AB contribution to the correlation energy is:   -0.2620804 a.u.
   The total correlation energy is -0.332755189216 a.u.
   The total correlation energy is -0.332755189216 a.u.
  Current DIIS expansion coefficients : 
 [   1] 0.0022447261 [   2] 0.0289125258 [   3]-0.1321696502 [   4] 0.0005680560
 [   5] 1.1004443423
  Convergence information after    15 iterations: 
  Largest element of residual vector :  0.75565030E-08.
  Largest element of DIIS residual   :  0.40015935E-08.
   Largest T1 amplitudes for spin case AA:
   i       a                 i       a                 i       a    
-----------------------------------------------------------------------------
[  5      42    ] 0.02487 [  4      29    ] 0.02487 [  3       7    ] 0.01534
[  5      43    ] 0.01531 [  4      30    ] 0.01531 [  3       8    ] 0.01220
[  2       8    ] 0.00828 [  3       6    ]-0.00796 [  5      44    ] 0.00596
[  4      31    ] 0.00596 [  3      12    ] 0.00560 [  5      51    ] 0.00543
[  4      38    ] 0.00543 [  2      21    ] 0.00402 [  5      46    ] 0.00363
-----------------------------------------------------------------------------
   Norm of T1AA vector (       95 symmetry allowed elements):  0.0504994018.
-----------------------------------------------------------------------------
   Largest T2 amplitudes for spin case AB:
       _       _                 _       _                 _       _
   i   j   a   b             i   j   a   b             i   j   a   b
-----------------------------------------------------------------------------
[  3   3  29  29]-0.08577 [  3   3  42  42]-0.08577 [  3   3  30  29]-0.06212
[  3   3  29  30]-0.06212 [  3   3  43  42]-0.06212 [  3   3  42  43]-0.06212
[  3   3  30  30]-0.04850 [  3   3  43  43]-0.04850 [  3   3   8   8]-0.04100
[  3   3   8   6] 0.02583 [  3   3   6   8] 0.02583 [  3   3   7   7]-0.02531
[  3   3   6   6]-0.02008 [  5   5  42  42]-0.01985 [  4   4  29  29]-0.01985
-----------------------------------------------------------------------------
   Norm of T2AB vector (    20209 symmetry allowed elements):  0.3070433496.
-----------------------------------------------------------------------------
  W(mnij) AB contribution =  0.0588701379 a.u.
  W(abef) AB contribution =  0.0725167208 a.u.
  W(mbej) AB contribution = -0.1810570091 a.u.
   After  16 iterations, amplitude changes are:
    -------------------------------------------------------------------
                 Spin      RMS          Max.      Max. change for
     Amplitude   Case     Change       Change       i    j    a    b
    -------------------------------------------------------------------
        T1        AA    0.0000000001-0.0000000025    4        29
        T2        AA    0.0000000000 0.0000000002    5    3   43    7
        T2        AB    0.0000000000-0.0000000013    3    3   43   42
    -------------------------------------------------------------------
   The AA contribution to the correlation energy is:   -0.0353374 a.u.
   The AB contribution to the correlation energy is:   -0.2620804 a.u.
   The total correlation energy is -0.332755189301 a.u.
   The total correlation energy is -0.332755189301 a.u.
  Current DIIS expansion coefficients : 
 [   1] 1.1611627705 [   2] 0.0048368885 [   3]-0.0126831559 [   4]-0.0208496474
 [   5]-0.1324668558
  Convergence information after    16 iterations: 
  Largest element of residual vector : -0.24811789E-08.
  Largest element of DIIS residual   : -0.16757282E-08.
  W(mnij) AB contribution =  0.0588701386 a.u.
  W(abef) AB contribution =  0.0725167218 a.u.
  W(mbej) AB contribution = -0.1810570122 a.u.
   After  17 iterations, amplitude changes are:
    -------------------------------------------------------------------
                 Spin      RMS          Max.      Max. change for
     Amplitude   Case     Change       Change       i    j    a    b
    -------------------------------------------------------------------
        T1        AA    0.0000000000-0.0000000007    5        42
        T2        AA    0.0000000000 0.0000000002    5    4   42   29
        T2        AB    0.0000000000-0.0000000007    3    3   43   43
    -------------------------------------------------------------------
   The AA contribution to the correlation energy is:   -0.0353374 a.u.
   The AB contribution to the correlation energy is:   -0.2620804 a.u.
   The total correlation energy is -0.332755189366 a.u.
   The total correlation energy is -0.332755189366 a.u.
  Current DIIS expansion coefficients : 
 [   1]-0.1503932621 [   2] 1.2036317139 [   3]-0.0012357637 [   4] 0.0284193396
 [   5]-0.0804220276
  Convergence information after    17 iterations: 
  Largest element of residual vector : -0.73938611E-09.
  Largest element of DIIS residual   : -0.49879226E-09.
  Amplitude equations converged in    17iterations.
   The AA contribution to the correlation energy is:   -0.0353374 a.u.
   The AB contribution to the correlation energy is:   -0.2620804 a.u.
   The total correlation energy is -0.332755189354 a.u.
   The total correlation energy is -0.332755189354 a.u.
   The CC iterations have converged.

   Largest T1 amplitudes for spin case AA:
   i       a                 i       a                 i       a    
-----------------------------------------------------------------------------
[  5      42    ] 0.02487 [  4      29    ] 0.02487 [  3       7    ] 0.01534
[  5      43    ] 0.01531 [  4      30    ] 0.01531 [  3       8    ] 0.01220
[  2       8    ] 0.00828 [  3       6    ]-0.00796 [  5      44    ] 0.00596
[  4      31    ] 0.00596 [  3      12    ] 0.00560 [  5      51    ] 0.00543
[  4      38    ] 0.00543 [  2      21    ] 0.00402 [  4      33    ] 0.00363
-----------------------------------------------------------------------------
   Norm of T1AA vector (       95 symmetry allowed elements):  0.0504993977.
-----------------------------------------------------------------------------
   Largest T2 amplitudes for spin case AB:
       _       _                 _       _                 _       _
   i   j   a   b             i   j   a   b             i   j   a   b
-----------------------------------------------------------------------------
[  3   3  29  29]-0.08577 [  3   3  42  42]-0.08577 [  3   3  30  29]-0.06212
[  3   3  29  30]-0.06212 [  3   3  43  42]-0.06212 [  3   3  42  43]-0.06212
[  3   3  30  30]-0.04850 [  3   3  43  43]-0.04850 [  3   3   8   8]-0.04100
[  3   3   8   6] 0.02583 [  3   3   6   8] 0.02583 [  3   3   7   7]-0.02531
[  3   3   6   6]-0.02008 [  5   5  42  42]-0.01985 [  4   4  29  29]-0.01985
-----------------------------------------------------------------------------
   Norm of T2AB vector (    20209 symmetry allowed elements):  0.3070433533.
-----------------------------------------------------------------------------
       Summary of iterative solution of CC equations 
      -----------------------------------------------------------
                       Correlation           Total
       Iteration         Energy              Energy
      -----------------------------------------------------------
            0        -0.319754024571    -124.482009072242  DIIS 
            1        -0.320199388488    -124.482454436159  DIIS 
            2        -0.330093937211    -124.492348984882  DIIS 
            3        -0.330577308779    -124.492832356451  DIIS 
            4        -0.332621101941    -124.494876149612  DIIS 
            5        -0.332759838364    -124.495014886036  DIIS 
            6        -0.332756055632    -124.495011103304  DIIS 
            7        -0.332756093099    -124.495011140771  DIIS 
            8        -0.332754318635    -124.495009366307  DIIS 
            9        -0.332754594206    -124.495009641878  DIIS 
           10        -0.332754935226    -124.495009982898  DIIS 
           11        -0.332755137591    -124.495010185262  DIIS 
           12        -0.332755164485    -124.495010212157  DIIS 
           13        -0.332755187239    -124.495010234911  DIIS 
           14        -0.332755188084    -124.495010235756  DIIS 
           15        -0.332755189216    -124.495010236888  DIIS 
           16        -0.332755189301    -124.495010236972  DIIS 
           17        -0.332755189354    -124.495010237026  DIIS 
      -----------------------------------------------------------
      A miracle has come to pass. The CC iterations have converged.
 @DIMT3-I, Dimensions of T3 amplitudes : 
               # abc          # ijk       Symmetry    Spin 
                     6718              1     1          1
                     6578              3     2          1
                     6578              3     3          1
                     6361              3     4          1
                    21396             15     1          2
                    20436             13     2          2
                    20436             13     3          2
                    19407              9     4          2
                    21396             15     1          3
                    20436             13     2          3
                    20436             13     3          3
                    19407              9     4          3
                     6718              1     1          4
                     6578              3     2          4
                     6578              3     3          4
                     6361              3     4          4
 @DIMT3-I, Dimensions of T3 amplitudes : 
               # abc          # ijk       Symmetry    Spin 
                     6718              1     1          1
                     6578              3     2          1
                     6578              3     3          1
                     6361              3     4          1
                    21396             15     1          2
                    20436             13     2          2
                    20436             13     3          2
                    19407              9     4          2
                    21396             15     1          3
                    20436             13     2          3
                    20436             13     3          3
                    19407              9     4          3
                     6718              1     1          4
                     6578              3     2          4
                     6578              3     3          4
                     6361              3     4          4
 @TRPS-I, Welcome to TRPS. Watch your RUs ! 
 @TRPS-I, Method is CCSD(T) 
 @TRPS-I, Calculation type is energy 
 @TRPS-I, Reference function information : 
          Reference function is Hartree-Fock 
          Reference function is RHF Hartree-Fock 
 @TRPS-I, INT1 is true 
 @TRPS-I, INT2 is false 
 @TRPS-I, Lengths of ijka integrals. #1        737
                                     #2        737
                                     #3       1949
                                     #4       1949
                                    Max       1949
 @INITRP-I, Initializing W intermediate lists. 
 @SETOOOV-I, Some OOOV lists are being transposed. 
 @TRPS-I, Available memory in integer words   1499959040
          Number of pre-allocated words for TRPS2        21498
          Number of free words for TRPS2   1499937542
 @TRPS2-I, Spin case AAB 
 @TRPS2-I, Number of free integer words 1499937542
           Number of free double  words 1499937542
           Ratio                                 1
 @TRPS2-I, E4TBAA      -0.005470613134
  @TRPS2-I, E4TAAA  -2.930255279974672E-004
 @TRPS2-I, E5ST A    0.000272652752359
 @TRPS2-I, E5ST B    0.000167810628968
 @SETOOOV-I, Some OOOV lists are being transposed. 
 @CCENRG-I, CCSD/QCISD energy will now be evaluated. 
 @CCENRG-I, Correlation energies. ECCAA       -0.035337396114
                                  ECCBB        0.000000000000
                                  ECCAB       -0.262080397125
                                  Total       -0.332755189354
 @CCENRG-I, Reference   energy    -124.162255047672
            CCSD/QCISD energy     -124.495010237026
          E4T (T(CCSD)) = -0.011527277324
          E5ST          =  0.000880926763
          E4ST          =  0.000000000000
          In other words  
          <T3[2](Dagger) D3  T3[2]> = -0.011527277324
          <T1   (Dagger) Q1 WT3[2]> =  0.000880926763
          <T2   (Dagger) Q2 FT3[2]> =  0.000000000000
        E(CCSD)           =    -124.495010237026
        E(CCSD + T(CCSD)) =    -124.506537514350
        E(CCSD(T))        =    -124.505656587587
  @CHECKOUT-I, Total execution time (CPU/WALL):        0.93/       0.95 seconds.
--executable xvcc finished with status     0 in        0.99 seconds (walltime).
  The final electronic energy is      -124.505656587586870 a.u. 
  This computation required                            7.78 seconds (walltime).
