 --invoking executable--
/project1/nike/cfour_v2.00beta_May2019xnmol_noLABBASIS/bin/xjoda


   *************************************************************************
         <<<     CCCCCC     CCCCCC   |||     CCCCCC     CCCCCC   >>>
       <<<      CCC        CCC       |||    CCC        CCC         >>>
      <<<      CCC        CCC        |||   CCC        CCC            >>>
    <<<        CCC        CCC        |||   CCC        CCC              >>>
      <<<      CCC        CCC        |||   CCC        CCC            >>>
       <<<      CCC        CCC       |||    CCC        CCC         >>>
         <<<     CCCCCC     CCCCCC   |||     CCCCCC     CCCCCC   >>>
   *************************************************************************

     ****************************************************************
     * CFOUR Coupled-Cluster techniques for Computational Chemistry *
     ****************************************************************
 

   Department of Chemistry                Institut fuer Physikalische Chemie
   University of Texas at Austin          Universitaet Mainz
   Austin, TX  78712, USA                 D-55099 Mainz, Germany
 
                       Version 2.00beta
 
                     wob118                                            
                     Fri Aug 23 00:31:26 EDT 2019                      
                     integer*8 version is running
 
********************************************************************************
*                          Input from ZMAT file                                *
********************************************************************************
TITLE                                                                           
S                                                                               
O 1 R                                                                           
O 1 R 2 A                                                                       
                                                                                
R=1.4308                                                                        
A=119.329                                                                       
                                                                                
*ACES2(CALC=CCSD                                                                
#GEOM=CRC2016_Re_And_Theta_e                                                    
#COORD=CARTESIAN                                                                
PRINT=4                                                                         
JODA_PRINT=4                                                                    
INPUT_MRCC=OFF                                                                  
CC_PROG=MRCC                                                                    
FROZEN_CORE=ON                                                                  
#DROPMO=1>5                                                                     
CONTRACTION=GENERAL                                                             
#CONTRACTION=SEGMENTED                                                          
RELATIVISTIC=OFF                                                                
#EXCITE=EOMEE                                                                   
#ESTATE_CONV=5                                                                  
#ESTATE_SYM=2/2/2/2/2/2/2/2                                                     
XFORM_TOL=18                                                                    
SAVE_INTS=ON                                                                    
SCF_EXPORDER=6                                                                  
SCF_EXPSTART=5                                                                  
#SCF_DAMPING=1000                                                               
SCF_EXTRAPOLATION=ON                                                            
SCF_CONV=12                                                                     
SCF_MAXCYC=9999                                                                 
CC_CONV=5                                                                       
CC_MAXCYC=999                                                                   
T3_EXTRAPOL=ON                                                                  
REFERENCE=ROHF                                                                  
CHARGE=+1                                                                       
MULT=2                                                                          
ABCDTYPE=STANDARD                                                               
#OCCUPATION=3-2-2-0-1-0-0-0/3-1-1-0-1-0-0-0                                     
MEM=20                                                                          
MEM_UNIT=GB                                                                     
BASIS=SPECIAL)                                                                  
                                                                                
S:def2-TZVPP                                                                    
O:def2-TZVPP                                                                    
O:def2-TZVPP                                                                    
                                                                                
********************************************************************************
  @GTFLGS-W, Keyword #GEOM not known and is ignored.
  @GTFLGS-W, Keyword #COORD not known and is ignored.
  @GTFLGS-W, Keyword #DROPMO not known and is ignored.
  @GTFLGS-W, Keyword #CONTRACTION not known and is ignored.
  @GTFLGS-W, Keyword #EXCITE not known and is ignored.
  @GTFLGS-W, Keyword #ESTATE_CONV not known and is ignored.
  @GTFLGS-W, Keyword #ESTATE_SYM not known and is ignored.
  @GTFLGS-W, Keyword #SCF_DAMPING not known and is ignored.
  @GTFLGS-W, Keyword #OCCUPATION not known and is ignored.
    -------------------------------------------------------------------
                    CFOUR Control Parameters 
    -------------------------------------------------------------------
        External           Internal           Value            Units
          Name               Name
    -------------------------------------------------------------------
       ABCDTYPE             IABCDT         STANDARD     [  0]   ***   
       ANHARMONIC           IANHAR         OFF          [  0]   ***   
       ANH_ALGORIT          IANALG         STANDARD     [  0]   ***   
       ANH_DERIVAT          IANDER         SECOND       [  1]   ***   
       ANH_STEPSIZ          ICUBST             50000          x 10-6  
       ANH_SYMMETR          IANHSM         ABELIAN      [  0]   ***   
       AO_LADDERS           IAOLAD         SINGLEPASS   [  1]   ***   
       BASIS                IBASIS         SPECIAL      [  0]   ***   
       BREIT                IBREIT         OFF          [  0]   ***   
       BRUCK_CONV           IBRTOL          10D-  4             ***   
       BRUECKNER            IBRKNR             OFF      [  0]   ***   
       BUFFERSIZE           IBUFFS            600               ***   
       CACHE_RECS           ICHREC             10               ***   
       CALCLEVEL            ICLLVL           CCSD       [ 10]   ***   
       CCORBOPT             ICCORB             OFF      [  0] x 0.01  
       CC_CONV              ICCCNV          10D-  5             ***   
       CC_EXPORDER          ICCEOR              5               ***   
       CC_EXTRAPOL          ICCEXT             DIIS     [  1]   ***   
       CC_MAXCYC            ICCCYC            999              cycles 
       CC_PROGRAM           ICCPRO         MRCC         [  2]   ***   
       CHARGE               ICHRGE              1               ***   
       CHOLESKY             ICHOLE         OFF          [  0]   ***   
       CIS_CONV             ICISTL              5               ***   
       COMM_SIZE            IPSIZE            ***               ***   
       CONSTANT             ICONST         OLD          [  1]   ***   
       CONTINUUM            ICONTU         NONE         [  0]   ***   
       CONTRACTION          ICNTYP          GENERAL     [  1]   ***   
       COORDINATES          ICOORD         INTERNAL     [  0]   ***   
       CPHF_CONVER          ICPHFT          10D- 16             ***   
       CPHF_MAXCYC          ICPHFC             64              cycles 
       CUBIC                ICUBIC         OFF          [  0]   ***   
       CURVILINEAR          ICURVY            OFF       [  0]   ***   
       DBOC                 IDBOC          OFF          [  0]   ***   
       DCT                  IDCT           OFF          [  0]   ***   
       DERIV_LEV            IDRLVL            ZERO      [  0]   ***   
       DIAG_MRCC            IEOMST          10D-  0             ***   
       DIFF_TYPE            IDIFTY         RELAXED      [  0]   ***   
       DIRECT               IDIRCT         OFF          [  0]   ***   
       DROPMO               IDRPMO      NONE         
       ECP                  IECP           OFF          [  0]   ***   
       EIGENVECTOR          IVEC                1               ***   
       EL_ANHARM            IELANH         OFF          [  0]   ***   
       EOMFOLLOW            IEOMSR         ENERGY       [  0]   ***   
       EOM_MRCC             IMRCCE         NEW          [  1]   ***   
       EOM_NONIT            EOMNON         OFF          [  0]   ***   
       EOM_NSING            IEOMSI          10D-  0             ***   
       EOM_NSTATES          IMRCCD         DAVIDSON     [  0]   ***   
       EOM_NTRIP            IEOMTR          10D-  0             ***   
       EOM_ORDER            IEXORD         ENERGY       [  0]   ***   
       ESTATE_CONV          IEXTOL          10D-  5             ***   
       ESTATE_DIAG          IEXDIG         ITERATIVE    [  0]   ***   
       ESTATE_LOCK          IESLOC         ON           [  1]   ***   
       ESTATE_MAXC          IEXMXC             20               ***   
       ESTATE_PROP          IEXPRP         OFF          [  0]   ***   
       EVAL_HESS            IRECAL              0            # of cyc.
       EXCITATION           IEXCIT              0               ***   
       EXCITE               IEXCIT         NONE         [  0]   ***   
       FCGRADNEW            IFCGNW         OFF          [  0]   ***   
       FC_FIELD             IFINFC              0             x 10-6  
       FD_CALTYPE           IFDCAL         GRADONLY     [  0]   ***   
       FD_PROJECT           IFDPRJ         OFF          [  1]   ***   
       FD_STEPSIZE          IDISFD              0            10-4 bohr
       FD_USEGROUP          IFDGRP         FULL         [  0]   ***   
       FILE_RECSIZ          IFLREC              4096           words  
       FINITE_PERT          IFIPER              0             x 10-6  
       FIXGEOM              IFIXGM         OFF          [  0]   ***   
       FOCK                 IFOCK          AO           [  1]   ***   
       FREQ_ALGORI          IVIALG         STANDARD     [  0]   ***   
       FROZEN_CORE          IFROCO         ON           [  1]   ***   
       FROZEN_VIRT          IFROVI         OFF          [  0]   ***   
       GAMMA_ABCD           IGABCD         STORE        [  0]   ***   
       GAMMA_ABCI           IGABCI         STORE        [  0]   ***   
       GENBAS_1             IGNBS1              0               ***   
       GENBAS_2             IGNBS2              0               ***   
       GENBAS_3             IGNBS3              0               ***   
       GENBAS_4             IGNBS4              0               ***   
       GEO_CONV             ICONTL              5              H/bohr 
       GEO_MAXCYC           IOPTCY             50               ***   
       GEO_MAXSTEP          IMXSTP            300            millibohr
       GEO_METHOD           INR            SINGLE_POINT [  5]   ***   
       GIAO                 IGIAO          OFF          [  1]   ***   
       GIMIC                IGIMIC         OFF          [  0]   ***   
       GRID                 IGRID          OFF          [  0]   ***   
       GRID_ALGO            IGALGO         SERIAL       [  0]   ***   
       GUESS                IGUESS            MOREAD    [  0]   ***   
       HBAR                 IHBAR              OFF      [  0]   ***   
       HESS_TYPE            IHESTP         SCF          [  0]   ***   
       HF2_FILE             IHF2Fl         USE          [  1]   ***   
       HFSTABILITY          ISTABL         OFF          [  0]   ***   
       INCORE               INCORE             OFF      [  0]   ***   
       INPUT_MRCC           IMRCC          OFF          [  0]   ***   
       INTEGRALS            INTTYP             VMOL     [  1]   ***   
       JODA_PRINT           IJPRNT              4               ***   
       LINDEP_TOL           ILINDP              8               ***   
       LINEQ_CONV           IZTACN          10D-  7           cycles  
       LINEQ_EXPOR          ILMAXD              5               ***   
       LINEQ_MAXCY          ILMAXC             50               ***   
       LINEQ_TYPE           ILTYPE         DIIS         [  1]   ***   
       LOCK_ORBOCC          ILOCOC             OFF      [  0]   ***   
       MEMORY_SIZE          IMEMSZ         *********           words  
       MEM_UNIT             IMEMU          GB           [  3]   ***   
       MRCC                 IMRCCC         OFF          [  0]   ***   
       MULTIPLICTY          IMULTP              2               ***   
       NEGEVAL              IDIE             ABORT      [  0]   ***   
       NEWNORM              INEWNO         OFF          [  0]   ***   
       NON-HF               INONHF              ON      [  1]   ***   
       NTOP_TAMP            ITOPT2             15               ***   
       NUC_MODEL            INUCMO         POINT        [  0]   ***   
       OCCUPATION           IOCCU   ESTIMATED BY SCF 
       OPEN-SHELL           IOPEN          SPIN-ORBITAL [  0]   ***   
       ORBITALS             IORBTP         SEMICANONICAL[  1]   ***   
       PARALLEL             IPARAL         ON           [  1]   ***   
       PARA_INT             IPINTS         ON           [  1]   ***   
       PARA_PRINT           IPPRIN              0               ***   
       PERT_ORB             IPTORB         STANDARD     [  0]   ***   
       POINTS               IGRDFD              0               ***   
       PRINT                IPRNT               4               ***   
       PROPS                IPROPS             OFF      [  0]   ***   
       PROP_INTEGR          IINTYP         INTERNAL     [  0]   ***   
       PSI                  IPSI           OFF          [  0]   ***   
       QUARTIC              IQUART         OFF          [  0]   ***   
       RAMAN_INT            IRAMIN         OFF          [  0]   ***   
       RAMAN_ORB            IRAMRE         UNRELAXED    [  0]   ***   
       RDO                  IRDOFM             OFF      [  0]   ***   
       REFERENCE            IREFNC             ROHF     [  2]   ***   
       RELATIVIST           IRELAT         OFF          [  0]   ***   
       RELAX_DENS           IRDENS             OFF      [  0]   ***   
       RESET_FLAGS          IRESET             OFF      [  0]   ***   
       RESTART_CC           ICCRES         OFF          [  0]   ***   
       ROT_EVEC             ROTVEC              0               ***   
       SAVE_INTS            ISVINT              ON      [  1]   ***   
       SCALE_ON             ISTCRT              0               ***   
       SCF_CONV             ISCFCV          10D- 12             ***   
       SCF_DAMPING          IDAMP               0             x 10-3  
       SCF_EXPORDE          IRPPOR              6               ***   
       SCF_EXPSTAR          IRPPLS              5               ***   
       SCF_EXTRAPO          IRPP                ON      [  1]   ***   
       SCF_MAXCYC           ISCFCY            ***              cycles 
       SCF_NOSTOP           ISCFST         OFF          [  0]   ***   
       SCF_PRINT            ISCFPR              0               ***   
       SD_FIELD             IFINSD              0             x 10-6  
       SEQUENCE             ISEQUE         OFF          [  0]   ***   
       SOPERT               IPERSO         OFF          [  0]   ***   
       SPHERICAL            IDFGHI             ON       [  1]   ***   
       SPINORBIT            ISOCAL         OFF          [  0]   ***   
       SPINROTATIO          ISRCON         OFF          [  0]   ***   
       SPIN_FLIP            ISPFLP         OFF          [  0]   ***   
       SPIN_ORBIT           ISPORB         OFF          [  0]   ***   
       SPIN_SCAL            ISCSMP         OFF          [  0]   ***   
       SUBGROUP             ISUBGP         DEFAULT      [  0]   ***   
       SUBGRPAXIS           ISBXYZ         X            [  0]   ***   
       SYMMETRY             ISYM             ON         [  0]   ***   
       SYM_CHECK            ISYMCK         OVERRIDE     [  1]   ***   
       T3_EXTRAPOL          IT3EXT         ON           [  1]   ***   
       TAMP_SUM             IEVERY              5               ***   
       TESTSUITE            ITESTS         OFF          [  0]   ***   
       THERMOCH             ITHERM         OFF          [  0]   ***   
       TOL_CHOLESK          ITOLCH          10D-  4             ***   
       TRANGRAD             IRESRM         OFF          [  0]   ***   
       TRANS_INV            ITRAIN         USE          [  0]   ***   
       TREAT_PERT           ITREAT         SIMULTANEOUS [  0]   ***   
       UIJ_THRESHO          IUIJTH              1               ***   
       UNITS                IUNITS         ANGSTROM     [  0]   ***   
       UNOS                 IUNOS          OFF          [  0]   ***   
       UPDATE_HESS          IHUPDT         ON           [  1]   ***   
       VIBPHASE             ISETPH         STANDARD     [  0]   ***   
       VIBRATION            IVIB              NO        [  0]   ***   
       VIB_ALGORIT          IGEALG         STANDARD     [  0]   ***   
       VNATORB              IVNORB         OFF          [  0]   ***   
       VTRAN                IVTRAN         FULL/PARTIAL [  0]   ***   
       XFIELD               IXEFLD              0             x 10-6  
       XFORM_TOL            IXFTOL          10D- 18             ***   
       YFIELD               IYEFLD              0             x 10-6  
       ZFIELD               IZEFLD              0             x 10-6  
    -------------------------------------------------------------------
   3 entries found in Z-matrix 
   Job Title : TITLE                                                                           
 Variable names read by FETCHZ
  1           
  2           
  3           
  4 R         
  5           
  6           
  7 R         
  8 A         
  9           
 Atomic symbols read by FETCHZ
  1 S    
  2 O    
  3 O    
 Connectivity matrix read by FETCHZ
  1   0
  2   0
  3   0
  4   1
  5   0
  6   0
  7   1
  8   2
  9   0
   There are  2 unique internal coordinates.
   Of these,  0 will be optimized.
   User supplied Z-matrix: 
--------------------------------------------------------------------------------
       SYMBOL    BOND      LENGTH    ANGLE     ANGLE     DIHED     ANGLE
                  TO      (ANGST)    WRT      (DEG)      WRT      (DEG)
--------------------------------------------------------------------------------
        S    
        O          1         R    
        O          1         R          2        A    
                  *Initial values for internal coordinates* 
                      Name             Value
                        R               1.4308000000
                        A             119.3290000000
--------------------------------------------------------------------------------
  1  S         16    31.97207
  2  O          8    15.99491
  3  O          8    15.99491
   31.9720707000
   15.9949146300
   15.9949146300
 After translation to center of mass coordinates 
       -0.589475848475    0.000000000000   -0.344952001652
       -0.589475848475    0.000000000000    2.358868704119
        1.767773072272    0.000000000000   -1.669347688218
  Inertia tensor (amu*bohr**2)
  137.37768    0.00000   62.94108
    0.00000  204.02979    0.00000
   62.94108    0.00000   66.65211
    Inertia tensor:
      137.377681349347    0.000000000000   62.941077305524
        0.000000000000  204.029788867593    0.000000000000
       62.941077305524    0.000000000000   66.652107518246
    Principal axis orientation for molecular system: 
        0.000000000000   -0.682988769585    0.000000000000
       -2.333621101307    0.682609621045    0.000000000000
        2.333621101307    0.682609621045    0.000000000000
    Diagonalized inertia tensor:
       29.819978332906    0.000000000000    0.000000000000
        0.000000000000  174.209810534687    0.000000000000
        0.000000000000    0.000000000000  204.029788867593
    Eigenvectors of inertia tensor: 
        0.505062479814    0.863082783679    0.000000000000
        0.000000000000    0.000000000000    1.000000000000
       -0.863082783679    0.505062479814    0.000000000000
 factor:   60.1997200000000     
   Rotational constants (in cm-1): 
          0.2950535818             0.3455587249             2.0187714199
   Rotational constants (in MHz): 
       8845.4850922833         10359.5914045877         60521.2530895257
  @SYMMETRY-I, Handedness of inertial frame:-1.00000
  @SYMMETRY-I, Sense of inertial frame y-axis will be changed.
  @SYMMETRY-I, The symmetry group is 1-fold degenerate.
  @SYMMETRY-I, The molecule belongs to an Abelian group.
   Principal axis orientation for molecule:
        0.000000000000    0.682988769585    0.000000000000
       -2.333621101307   -0.682609621045    0.000000000000
        2.333621101307   -0.682609621045    0.000000000000
   Reflection in plane  3 is a valid symmetry operation.
   Rotation about  2 is a valid symmetry operation 
   Reflection in plane  1 is a valid symmetry operation.
  Symmetry bits:    5   2   0
********************************************************************************
   The full molecular point group is C2v .
   The largest Abelian subgroup of the full molecular point group is C2v .
   The computational point group is C2v .
********************************************************************************
--------------------------------------------------------------------------------
   Analysis of internal coordinates specified by Z-matrix 
--------------------------------------------------------------------------------
   *The nuclear repulsion energy is  108.393428770527322 a.u.
   *There are   2 degrees of freedom within the tot. symm. molecular subspace.
   *Z-matrix requests optimization of   0 coordinates.
   *The optimization is constrained.
   *The following   2 parameters can have non-zero 
    derivatives within the totally symmetric subspace:
             A    [ 3]  R    [ 1]
   *The following   0 parameters are to be optimized:

   *The following coordinates must be varied in an  unconstrained optimization.
             A    [ 3]  R    [ 1]
--------------------------------------------------------------------------------
 ----------------------------------------------------------------
 Z-matrix   Atomic            Coordinates (in bohr)
  Symbol    Number           X              Y              Z
 ----------------------------------------------------------------
     S        16         0.00000000     0.00000000     0.68298877
     O         8         0.00000000    -2.33362110    -0.68260962
     O         8         0.00000000     2.33362110    -0.68260962
 ----------------------------------------------------------------
   Interatomic distance matrix (Angstroms) 
 
                 S             O             O    
                [ 1]        [ 2]        [ 3]
  S    [ 1]     0.00000
  O    [ 2]     1.43080     0.00000
  O    [ 3]     1.43080     2.46980     0.00000
  Inertia tensor (amu*bohr**2)
  204.02979    0.00000    0.00000
    0.00000   29.81998    0.00000
    0.00000    0.00000  174.20981
   Rotational constants (in cm-1): 
          0.2950535818             2.0187714199             0.3455587249
   Rotational constants (in MHz): 
       8845.4850922833         60521.2530895256         10359.5914045877
  @GTFLGS-W, Keyword #GEOM not known and is ignored.
  @GTFLGS-W, Keyword #COORD not known and is ignored.
  @GTFLGS-W, Keyword #DROPMO not known and is ignored.
  @GTFLGS-W, Keyword #CONTRACTION not known and is ignored.
  @GTFLGS-W, Keyword #EXCITE not known and is ignored.
  @GTFLGS-W, Keyword #ESTATE_CONV not known and is ignored.
  @GTFLGS-W, Keyword #ESTATE_SYM not known and is ignored.
  @GTFLGS-W, Keyword #SCF_DAMPING not known and is ignored.
  @GTFLGS-W, Keyword #OCCUPATION not known and is ignored.
  There are   7 frozen-core orbitals.
  There are   7 frozen-core orbitals.
  There are  104 basis functions.
 @GEOPT-W, Archive file not created for single-point calculation.
  @CHECKOUT-I, Total execution time (CPU/WALL):        0.37/       0.44 seconds.
--executable xjoda finished with status     0 in        0.52 seconds (walltime).
 --invoking executable--
/project1/nike/cfour_v2.00beta_May2019xnmol_noLABBASIS/bin/xvmol
Running with 5 threads/proc

********************************************************************************
                   INPUT FROM MOL FILE                                          
********************************************************************************
INTGRL        1    0    1    0    0    0    0    0    0
         *** CFOUR Program System (Release V0.1) *** 
TITLE
    2    2 X  Y       0.10E-08              0    0
   9999.00      3.00
         16.00000000    1    4    1    1    1    1
S #1  -0.000000000000001   0.000000000000000   0.682988769585003
   14    5
   60700.9281040000       5.469594422500000E-004  0.000000000000000E+000
  0.000000000000000E+000  0.000000000000000E+000  0.000000000000000E+000
   9102.61068540000       4.229722455700000E-003  0.000000000000000E+000
  0.000000000000000E+000  0.000000000000000E+000  0.000000000000000E+000
   2071.41660090000       2.174782415900000E-002  0.000000000000000E+000
  0.000000000000000E+000  0.000000000000000E+000  0.000000000000000E+000
   586.024768210000       8.510005358900000E-002  0.000000000000000E+000
  0.000000000000000E+000  0.000000000000000E+000  0.000000000000000E+000
   190.553950210000       0.247991284590000       0.000000000000000E+000
  0.000000000000000E+000  0.000000000000000E+000  0.000000000000000E+000
   67.6303842600000       0.467036404060000       0.000000000000000E+000
  0.000000000000000E+000  0.000000000000000E+000  0.000000000000000E+000
   25.1273069050000       0.364345875500000       0.000000000000000E+000
  0.000000000000000E+000  0.000000000000000E+000  0.000000000000000E+000
   112.574630100000       0.000000000000000E+000  2.167004024000000E-002
  0.000000000000000E+000  0.000000000000000E+000  0.000000000000000E+000
   34.7955542170000       0.000000000000000E+000  9.360230176000001E-002
  0.000000000000000E+000  0.000000000000000E+000  0.000000000000000E+000
   6.51155562150000       0.000000000000000E+000 -0.260680014220000     
  0.000000000000000E+000  0.000000000000000E+000  0.000000000000000E+000
   3.23990322610000       0.000000000000000E+000  0.000000000000000E+000
   1.28420894350000       0.000000000000000E+000  0.000000000000000E+000
   1.54771608810000       0.000000000000000E+000  0.000000000000000E+000
  0.660364165840000       0.000000000000000E+000  0.000000000000000E+000
  0.405410301120000       0.000000000000000E+000  0.000000000000000E+000
  0.000000000000000E+000   1.00000000000000       0.000000000000000E+000
  0.145506510590000       0.000000000000000E+000  0.000000000000000E+000
  0.000000000000000E+000  0.000000000000000E+000   1.00000000000000     
    9    5
   564.367160270000       2.479679631700000E-003  0.000000000000000E+000
  0.000000000000000E+000  0.000000000000000E+000  0.000000000000000E+000
   133.426243790000       1.967793025000000E-002  0.000000000000000E+000
  0.000000000000000E+000  0.000000000000000E+000  0.000000000000000E+000
   42.4682711890000       8.998000825800000E-002  0.000000000000000E+000
  0.000000000000000E+000  0.000000000000000E+000  0.000000000000000E+000
   15.6165275800000       0.257058805750000       0.000000000000000E+000
  0.000000000000000E+000  0.000000000000000E+000  0.000000000000000E+000
   6.10939884690000       0.435151672920000       0.000000000000000E+000
  0.000000000000000E+000  0.000000000000000E+000  0.000000000000000E+000
   2.44041601980000       0.000000000000000E+000  0.348832405950000     
  0.000000000000000E+000  0.000000000000000E+000  0.000000000000000E+000
  0.838822012960000       0.000000000000000E+000  0.000000000000000E+000
   1.00000000000000       0.000000000000000E+000  0.000000000000000E+000
  0.312887469000000       0.000000000000000E+000  0.000000000000000E+000
  0.000000000000000E+000   1.00000000000000       0.000000000000000E+000
  0.107701090040000       0.000000000000000E+000  0.000000000000000E+000
  0.000000000000000E+000  0.000000000000000E+000   1.00000000000000     
    3    3
  0.273000000000000        1.00000000000000       0.000000000000000E+000
  0.000000000000000E+000
   3.75600000000000       0.000000000000000E+000   1.00000000000000     
  0.000000000000000E+000
  0.812000000000000       0.000000000000000E+000  0.000000000000000E+000
   1.00000000000000     
    1    1
  0.557000000000000        1.00000000000000     
          8.00000000    1    4    1    1    1    1
O #2   0.000000000000000  -2.333621101306935  -0.682609621045465
   11    5
   27032.3826310000       2.172630246500000E-004  0.000000000000000E+000
  0.000000000000000E+000  0.000000000000000E+000  0.000000000000000E+000
   4052.38713920000       1.683866219900000E-003  0.000000000000000E+000
  0.000000000000000E+000  0.000000000000000E+000  0.000000000000000E+000
   922.327227100000       8.739561626499999E-003  0.000000000000000E+000
  0.000000000000000E+000  0.000000000000000E+000  0.000000000000000E+000
   261.240709890000       3.523996880800000E-002  0.000000000000000E+000
  0.000000000000000E+000  0.000000000000000E+000  0.000000000000000E+000
   85.3546413510000       0.111535191150000       0.000000000000000E+000
  0.000000000000000E+000  0.000000000000000E+000  0.000000000000000E+000
   31.0350352450000       0.255889539610000       0.000000000000000E+000
  0.000000000000000E+000  0.000000000000000E+000  0.000000000000000E+000
   12.2608607280000       0.000000000000000E+000  0.397687309010000     
  0.000000000000000E+000  0.000000000000000E+000  0.000000000000000E+000
   4.99870760050000       0.000000000000000E+000  0.246278494300000     
  0.000000000000000E+000  0.000000000000000E+000  0.000000000000000E+000
   1.17031081580000       0.000000000000000E+000  0.000000000000000E+000
   1.00000000000000       0.000000000000000E+000  0.000000000000000E+000
  0.464747409940000       0.000000000000000E+000  0.000000000000000E+000
  0.000000000000000E+000   1.00000000000000       0.000000000000000E+000
  0.185045363570000       0.000000000000000E+000  0.000000000000000E+000
  0.000000000000000E+000  0.000000000000000E+000   1.00000000000000     
    6    3
   63.2749548010000       6.068510341800000E-003  0.000000000000000E+000
  0.000000000000000E+000
   14.6270493790000       4.191257582400000E-002  0.000000000000000E+000
  0.000000000000000E+000
   4.45012234560000       0.161538410880000       0.000000000000000E+000
  0.000000000000000E+000
   1.52757996470000       0.357069513110000       0.000000000000000E+000
  0.000000000000000E+000
  0.529351179430000       0.000000000000000E+000  0.447942075020000     
  0.000000000000000E+000
  0.174784212700000       0.000000000000000E+000  0.000000000000000E+000
  0.244460696630000     
    2    2
   2.31400000000000        1.00000000000000       0.000000000000000E+000
  0.645000000000000       0.000000000000000E+000   1.00000000000000     
    1    1
   1.42800000000000        1.00000000000000     
FINISH
                                                                                
********************************************************************************

ONE- AND TWO-ELECTRON INTEGRALS OVER SYMMETRY-ADAPTED AOS ARE CALCULATED.


    BASIS FUNCTION NOT NORMALIZED:
    CENTER (AS ORDERED IN MOL FILE): ?
    ANGULAR MOMENTUM TYPE:           S
    OFFSET WITHIN ANGULAR MOMENTUM:  1
    <CHI|CHI>:                       1.0903803538

    BASIS FUNCTION NOT NORMALIZED:
    CENTER (AS ORDERED IN MOL FILE): ?
    ANGULAR MOMENTUM TYPE:           S
    OFFSET WITHIN ANGULAR MOMENTUM:  2
    <CHI|CHI>:                       0.0465339884

    BASIS FUNCTION NOT NORMALIZED:
    CENTER (AS ORDERED IN MOL FILE): ?
    ANGULAR MOMENTUM TYPE:           S
    OFFSET WITHIN ANGULAR MOMENTUM:  3
    <CHI|CHI>:                       3.6198277538

    BASIS FUNCTION NOT NORMALIZED:
    CENTER (AS ORDERED IN MOL FILE): ?
    ANGULAR MOMENTUM TYPE:           P
    OFFSET WITHIN ANGULAR MOMENTUM:  1
    <CHI|CHI>:                       0.5052028598

    BASIS FUNCTION NOT NORMALIZED:
    CENTER (AS ORDERED IN MOL FILE): ?
    ANGULAR MOMENTUM TYPE:           P
    OFFSET WITHIN ANGULAR MOMENTUM:  2
    <CHI|CHI>:                       0.1216840474

    BASIS FUNCTION NOT NORMALIZED:
    CENTER (AS ORDERED IN MOL FILE): ?
    ANGULAR MOMENTUM TYPE:           S
    OFFSET WITHIN ANGULAR MOMENTUM:  1
    <CHI|CHI>:                       0.1441333881

    BASIS FUNCTION NOT NORMALIZED:
    CENTER (AS ORDERED IN MOL FILE): ?
    ANGULAR MOMENTUM TYPE:           S
    OFFSET WITHIN ANGULAR MOMENTUM:  2
    <CHI|CHI>:                       0.3880597184

    BASIS FUNCTION NOT NORMALIZED:
    CENTER (AS ORDERED IN MOL FILE): ?
    ANGULAR MOMENTUM TYPE:           P
    OFFSET WITHIN ANGULAR MOMENTUM:  1
    <CHI|CHI>:                       0.2549621911

    BASIS FUNCTION NOT NORMALIZED:
    CENTER (AS ORDERED IN MOL FILE): ?
    ANGULAR MOMENTUM TYPE:           P
    OFFSET WITHIN ANGULAR MOMENTUM:  2
    <CHI|CHI>:                       0.2006521026

    BASIS FUNCTION NOT NORMALIZED:
    CENTER (AS ORDERED IN MOL FILE): ?
    ANGULAR MOMENTUM TYPE:           P
    OFFSET WITHIN ANGULAR MOMENTUM:  3
    <CHI|CHI>:                       0.0597610322
CARTESIAN GAUSSIANS ARE USED.

2 TYPES OF ATOMS
2 SYMMETRY OPERATIONS

REFLECTION IN THE YZ-PLANE
REFLECTION IN THE XZ-PLANE

INTEGRALS LESS THAN 1e-14 ARE NEGLECTED.

ATOMIC TYPE NUMBER 1:
---------------------

    NUCLEAR CHARGE:                       16
    NUMBER OF SYMMETRY INDEPENDENT ATOMS: 1
    HIGHEST ORBITAL TYPE:                 F

    1 GROUPS OF CGTOS OF S TYPE
    1 GROUPS OF CGTOS OF P TYPE
    1 GROUPS OF CGTOS OF D TYPE
    1 GROUPS OF CGTOS OF F TYPE

    NUCLEAR COORDINATES (IN A.U.) ARE:

    S #1  -0.000000000000001   0.000000000000000   0.682988769585003

ATOMIC TYPE NUMBER 2:
---------------------

    NUCLEAR CHARGE:                       8
    NUMBER OF SYMMETRY INDEPENDENT ATOMS: 1
    HIGHEST ORBITAL TYPE:                 F

    1 GROUPS OF CGTOS OF S TYPE
    1 GROUPS OF CGTOS OF P TYPE
    1 GROUPS OF CGTOS OF D TYPE
    1 GROUPS OF CGTOS OF F TYPE

    NUCLEAR COORDINATES (IN A.U.) ARE:

    O #2   0.000000000000000  -2.333621101306935  -0.682609621045465

INTERNUCLEAR DISTANCES (A):

    FOR ATOM S #1 (COORDINATES:  -0.00000   0.00000   0.68299)

    O #2 1 DISTANCE IS   1.43080

    FOR ATOM O #2 (COORDINATES:   0.00000  -2.33362  -0.68261)

    O #2 3 DISTANCE IS   2.46980

GROUP MULTIPLICATION TABLE:

    1 2 3 4
    2 1 4 3
    3 4 1 2
    4 3 2 1

GAUSSIAN BASIS INFORMATION:

ATOM                EXPONENT       COEFFICIENTS

S #1  1  S   
                  1   60700.928104   1.4436859   0.0000000   0.0000000   0.0000000   0.0000000
                  2    9102.610685   2.6903416   0.0000000   0.0000000   0.0000000   0.0000000
                  3    2071.416601   4.5576134   0.0000000   0.0000000   0.0000000   0.0000000
                  4     586.024768   6.9181169   0.0000000   0.0000000   0.0000000   0.0000000
                  5     190.553950   8.6810242   0.0000000   0.0000000   0.0000000   0.0000000
                  6      67.630384   7.5175826   0.0000000   0.0000000   0.0000000   0.0000000
                  7      25.127307   2.7909008   0.0000000   0.0000000   0.0000000   0.0000000
                  8     112.574630   0.0000000   2.4743724   0.0000000   0.0000000   0.0000000
                  9      34.795554   0.0000000   4.4305159   0.0000000   0.0000000   0.0000000
                 10       6.511556   0.0000000  -3.5107205   0.0000000   0.0000000   0.0000000
                 11       3.239903   0.0000000   0.0000000   1.1617184   0.0000000   0.0000000
                 12       1.547716   0.0000000   0.0000000   0.3432560   0.0000000   0.0000000
                 13       0.405410   0.0000000   0.0000000   0.0000000   0.3621022   0.0000000
                 14       0.145507   0.0000000   0.0000000   0.0000000   0.0000000   0.1679082

S #1  1  X   
                 15     564.367160  13.6790183   0.0000000   0.0000000   0.0000000   0.0000000
                 16     133.426244  17.8952669   0.0000000   0.0000000   0.0000000   0.0000000
                 17      42.468271  19.5629319   0.0000000   0.0000000   0.0000000   0.0000000
                 18      15.616528  16.0036949   0.0000000   0.0000000   0.0000000   0.0000000
                 19       6.109399   8.3819669   0.0000000   0.0000000   0.0000000   0.0000000
                 20       2.440416   0.0000000   4.3478036   0.0000000   0.0000000   0.0000000
                 21       0.838822   0.0000000   0.0000000   1.1442670   0.0000000   0.0000000
                 22       0.312887   0.0000000   0.0000000   0.0000000   0.3335610   0.0000000
                 23       0.107701   0.0000000   0.0000000   0.0000000   0.0000000   0.0879458

S #1  1  Y   
                 24     564.367160  13.6790183   0.0000000   0.0000000   0.0000000   0.0000000
                 25     133.426244  17.8952669   0.0000000   0.0000000   0.0000000   0.0000000
                 26      42.468271  19.5629319   0.0000000   0.0000000   0.0000000   0.0000000
                 27      15.616528  16.0036949   0.0000000   0.0000000   0.0000000   0.0000000
                 28       6.109399   8.3819669   0.0000000   0.0000000   0.0000000   0.0000000
                 29       2.440416   0.0000000   4.3478036   0.0000000   0.0000000   0.0000000
                 30       0.838822   0.0000000   0.0000000   1.1442670   0.0000000   0.0000000
                 31       0.312887   0.0000000   0.0000000   0.0000000   0.3335610   0.0000000
                 32       0.107701   0.0000000   0.0000000   0.0000000   0.0000000   0.0879458

S #1  1  Z   
                 33     564.367160  13.6790183   0.0000000   0.0000000   0.0000000   0.0000000
                 34     133.426244  17.8952669   0.0000000   0.0000000   0.0000000   0.0000000
                 35      42.468271  19.5629319   0.0000000   0.0000000   0.0000000   0.0000000
                 36      15.616528  16.0036949   0.0000000   0.0000000   0.0000000   0.0000000
                 37       6.109399   8.3819669   0.0000000   0.0000000   0.0000000   0.0000000
                 38       2.440416   0.0000000   4.3478036   0.0000000   0.0000000   0.0000000
                 39       0.838822   0.0000000   0.0000000   1.1442670   0.0000000   0.0000000
                 40       0.312887   0.0000000   0.0000000   0.0000000   0.3335610   0.0000000
                 41       0.107701   0.0000000   0.0000000   0.0000000   0.0000000   0.0879458

S #1  1  XX  
                 42       0.273000   0.2939373   0.0000000   0.0000000
                 43       3.756000   0.0000000  28.8894887   0.0000000
                 44       0.812000   0.0000000   0.0000000   1.9801274

S #1  1  XY  
                 45       0.273000   0.2939373   0.0000000   0.0000000
                 46       3.756000   0.0000000  28.8894887   0.0000000
                 47       0.812000   0.0000000   0.0000000   1.9801274

S #1  1  XZ  
                 48       0.273000   0.2939373   0.0000000   0.0000000
                 49       3.756000   0.0000000  28.8894887   0.0000000
                 50       0.812000   0.0000000   0.0000000   1.9801274

S #1  1  YY  
                 51       0.273000   0.2939373   0.0000000   0.0000000
                 52       3.756000   0.0000000  28.8894887   0.0000000
                 53       0.812000   0.0000000   0.0000000   1.9801274

S #1  1  YZ  
                 54       0.273000   0.2939373   0.0000000   0.0000000
                 55       3.756000   0.0000000  28.8894887   0.0000000
                 56       0.812000   0.0000000   0.0000000   1.9801274

S #1  1  ZZ  
                 57       0.273000   0.2939373   0.0000000   0.0000000
                 58       3.756000   0.0000000  28.8894887   0.0000000
                 59       0.812000   0.0000000   0.0000000   1.9801274

S #1  1  F300
                 60       0.557000   1.5281791

S #1  1  F210
                 61       0.557000   1.5281791

S #1  1  F201
                 62       0.557000   1.5281791

S #1  1  F120
                 63       0.557000   1.5281791

S #1  1  F111
                 64       0.557000   1.5281791

S #1  1  F102
                 65       0.557000   1.5281791

S #1  1  F030
                 66       0.557000   1.5281791

S #1  1  F021
                 67       0.557000   1.5281791

S #1  1  F012
                 68       0.557000   1.5281791

S #1  1  F003
                 69       0.557000   1.5281791

O #2  1  S   
                 70   27032.382631   0.8598582   0.0000000   0.0000000   0.0000000   0.0000000
                 71    4052.387139   1.6055306   0.0000000   0.0000000   0.0000000   0.0000000
                 72     922.327227   2.7458779   0.0000000   0.0000000   0.0000000   0.0000000
                 73     261.240710   4.2987674   0.0000000   0.0000000   0.0000000   0.0000000
                 74      85.354641   5.8797663   0.0000000   0.0000000   0.0000000   0.0000000
                 75      31.035035   6.3163983   0.0000000   0.0000000   0.0000000   0.0000000
                 76      12.260861   0.0000000   2.9812148   0.0000000   0.0000000   0.0000000
                 77       4.998708   0.0000000   0.9419560   0.0000000   0.0000000   0.0000000
                 78       1.170311   0.0000000   0.0000000   0.8019292   0.0000000   0.0000000
                 79       0.464747   0.0000000   0.0000000   0.0000000   0.4011648   0.0000000
                 80       0.185045   0.0000000   0.0000000   0.0000000   0.0000000   0.2010799

O #2  3  S   
                 81   27032.382631   0.8598582   0.0000000   0.0000000   0.0000000   0.0000000
                 82    4052.387139   1.6055306   0.0000000   0.0000000   0.0000000   0.0000000
                 83     922.327227   2.7458779   0.0000000   0.0000000   0.0000000   0.0000000
                 84     261.240710   4.2987674   0.0000000   0.0000000   0.0000000   0.0000000
                 85      85.354641   5.8797663   0.0000000   0.0000000   0.0000000   0.0000000
                 86      31.035035   6.3163983   0.0000000   0.0000000   0.0000000   0.0000000
                 87      12.260861   0.0000000   2.9812148   0.0000000   0.0000000   0.0000000
                 88       4.998708   0.0000000   0.9419560   0.0000000   0.0000000   0.0000000
                 89       1.170311   0.0000000   0.0000000   0.8019292   0.0000000   0.0000000
                 90       0.464747   0.0000000   0.0000000   0.0000000   0.4011648   0.0000000
                 91       0.185045   0.0000000   0.0000000   0.0000000   0.0000000   0.2010799

O #2  1  X   
                 92      63.274955   3.0572017   0.0000000   0.0000000
                 93      14.627049   3.3844839   0.0000000   0.0000000
                 94       4.450122   2.9474262   0.0000000   0.0000000
                 95       1.527580   1.7118271   0.0000000   0.0000000
                 96       0.529351   0.0000000   0.6436058   0.0000000
                 97       0.174784   0.0000000   0.0000000   0.1610897

O #2  3  X   
                 98      63.274955   3.0572017   0.0000000   0.0000000
                 99      14.627049   3.3844839   0.0000000   0.0000000
                100       4.450122   2.9474262   0.0000000   0.0000000
                101       1.527580   1.7118271   0.0000000   0.0000000
                102       0.529351   0.0000000   0.6436058   0.0000000
                103       0.174784   0.0000000   0.0000000   0.1610897

O #2  1  Y   
                104      63.274955   3.0572017   0.0000000   0.0000000
                105      14.627049   3.3844839   0.0000000   0.0000000
                106       4.450122   2.9474262   0.0000000   0.0000000
                107       1.527580   1.7118271   0.0000000   0.0000000
                108       0.529351   0.0000000   0.6436058   0.0000000
                109       0.174784   0.0000000   0.0000000   0.1610897

O #2  3  Y   
                110      63.274955   3.0572017   0.0000000   0.0000000
                111      14.627049   3.3844839   0.0000000   0.0000000
                112       4.450122   2.9474262   0.0000000   0.0000000
                113       1.527580   1.7118271   0.0000000   0.0000000
                114       0.529351   0.0000000   0.6436058   0.0000000
                115       0.174784   0.0000000   0.0000000   0.1610897

O #2  1  Z   
                116      63.274955   3.0572017   0.0000000   0.0000000
                117      14.627049   3.3844839   0.0000000   0.0000000
                118       4.450122   2.9474262   0.0000000   0.0000000
                119       1.527580   1.7118271   0.0000000   0.0000000
                120       0.529351   0.0000000   0.6436058   0.0000000
                121       0.174784   0.0000000   0.0000000   0.1610897

O #2  3  Z   
                122      63.274955   3.0572017   0.0000000   0.0000000
                123      14.627049   3.3844839   0.0000000   0.0000000
                124       4.450122   2.9474262   0.0000000   0.0000000
                125       1.527580   1.7118271   0.0000000   0.0000000
                126       0.529351   0.0000000   0.6436058   0.0000000
                127       0.174784   0.0000000   0.0000000   0.1610897

O #2  1  XX  
                128       2.314000  12.3767311   0.0000000
                129       0.645000   0.0000000   1.3234258

O #2  3  XX  
                130       2.314000  12.3767311   0.0000000
                131       0.645000   0.0000000   1.3234258

O #2  1  XY  
                132       2.314000  12.3767311   0.0000000
                133       0.645000   0.0000000   1.3234258

O #2  3  XY  
                134       2.314000  12.3767311   0.0000000
                135       0.645000   0.0000000   1.3234258

O #2  1  XZ  
                136       2.314000  12.3767311   0.0000000
                137       0.645000   0.0000000   1.3234258

O #2  3  XZ  
                138       2.314000  12.3767311   0.0000000
                139       0.645000   0.0000000   1.3234258

O #2  1  YY  
                140       2.314000  12.3767311   0.0000000
                141       0.645000   0.0000000   1.3234258

O #2  3  YY  
                142       2.314000  12.3767311   0.0000000
                143       0.645000   0.0000000   1.3234258

O #2  1  YZ  
                144       2.314000  12.3767311   0.0000000
                145       0.645000   0.0000000   1.3234258

O #2  3  YZ  
                146       2.314000  12.3767311   0.0000000
                147       0.645000   0.0000000   1.3234258

O #2  1  ZZ  
                148       2.314000  12.3767311   0.0000000
                149       0.645000   0.0000000   1.3234258

O #2  3  ZZ  
                150       2.314000  12.3767311   0.0000000
                151       0.645000   0.0000000   1.3234258

O #2  1  F300
                152       1.428000  12.7097950

O #2  3  F300
                153       1.428000  12.7097950

O #2  1  F210
                154       1.428000  12.7097950

O #2  3  F210
                155       1.428000  12.7097950

O #2  1  F201
                156       1.428000  12.7097950

O #2  3  F201
                157       1.428000  12.7097950

O #2  1  F120
                158       1.428000  12.7097950

O #2  3  F120
                159       1.428000  12.7097950

O #2  1  F111
                160       1.428000  12.7097950

O #2  3  F111
                161       1.428000  12.7097950

O #2  1  F102
                162       1.428000  12.7097950

O #2  3  F102
                163       1.428000  12.7097950

O #2  1  F030
                164       1.428000  12.7097950

O #2  3  F030
                165       1.428000  12.7097950

O #2  1  F021
                166       1.428000  12.7097950

O #2  3  F021
                167       1.428000  12.7097950

O #2  1  F012
                168       1.428000  12.7097950

O #2  3  F012
                169       1.428000  12.7097950

O #2  1  F003
                170       1.428000  12.7097950

O #2  3  F003
                171       1.428000  12.7097950

SYMMETRY TRANSFORMATION INTO 104 SYMMETRY-ADAPTED BASIS FUNCTIONS

    IRREDUCIBLE REPRESENTATION NUMBER 1

    1    1 S #1 S      1   1.0
    2    2 S #1 S      2   1.0
    3    3 S #1 S      3   1.0
    4    4 S #1 S      4   1.0
    5    5 S #1 S      5   1.0
    6    6 S #1 Z     16   1.0
    7    7 S #1 Z     17   1.0
    8    8 S #1 Z     18   1.0
    9    9 S #1 Z     19   1.0
   10   10 S #1 Z     20   1.0
   11   11 S #1 XX    21  -1.0  30  -1.0  36   2.0
   12   12 S #1 XX    22  -1.0  31  -1.0  37   2.0
   13   13 S #1 XX    23  -1.0  32  -1.0  38   2.0
   14   14 S #1 YY    21   1.0  30  -1.0
   15   15 S #1 YY    22   1.0  31  -1.0
   16   16 S #1 YY    23   1.0  32  -1.0
   17   17 S #1 ZZ    41  -3.0  46  -3.0  48   2.0
   18   18 S #1 ZZ    41   1.0  46  -1.0
   19   19 S #1 ZZ    49   1.0  50   1.0
   20   20 S #1 F201  51   1.0  52   1.0
   21   21 S #1 F021  53   1.0  54   1.0
   22   22 S #1 F003  55   1.0  56   1.0
   23   23 O #2 S     57   1.0  58   1.0
   24   24 O #2 S     65   1.0  66  -1.0
   25   25 O #2 S     67   1.0  68  -1.0
   26   26 O #2 S     69   1.0  70  -1.0
   27   27 O #2 S     71   1.0  72   1.0
   28   28 O #2 Y     73   1.0  74   1.0
   29   29 O #2 Y     75   1.0  76   1.0
   30   30 O #2 Y     77  -1.0  78  -1.0  89  -1.0  90  -1.0  97   2.0  98   2.0
   31   31 O #2 Z     79  -1.0  80  -1.0  91  -1.0  92  -1.0  99   2.0 100   2.0
   32   32 O #2 Z     77   1.0  78   1.0  89  -1.0  90  -1.0
   33   33 O #2 Z     79   1.0  80   1.0  91  -1.0  92  -1.0
   34   34 O #2 XX    93   1.0  94  -1.0
   35   35 O #2 XX    95   1.0  96  -1.0
   36   36 O #2 YY   103  -1.0 104   1.0 113  -1.0 114   1.0 117   4.0 118  -4.0
   37   37 O #2 YY   105  -3.0 106  -3.0 115  -3.0 116  -3.0 119   2.0 120   2.0
   38   38 O #2 YZ   103   3.0 104  -3.0 113  -1.0 114   1.0
   39   39 O #2 YZ   105   1.0 106   1.0 115  -1.0 116  -1.0
   40   40 O #2 ZZ     6   1.0
   41   41 O #2 ZZ     7   1.0
   42   42 O #2 F210   8   1.0
   43   43 O #2 F201   9   1.0
   44   44 O #2 F030  10   1.0
   45   45 O #2 F021  27   1.0
   46   46 O #2 F012  28   1.0
   47   47 O #2 F003  29   1.0

    IRREDUCIBLE REPRESENTATION NUMBER 2

   48    1 S #1 X     39  -1.0  42  -1.0  44   4.0
   49    2 S #1 X     39   1.0  42  -3.0
   50    3 S #1 X     59   1.0  60   1.0
   51    4 S #1 X     61   1.0  62   1.0
   52    5 S #1 X     63   1.0  64   1.0
   53    6 S #1 XZ    81   1.0  82  -1.0
   54    7 S #1 XZ    83   1.0  84  -1.0
   55    8 S #1 XZ    85   1.0  86   1.0
   56    9 S #1 F300  87   1.0  88   1.0
   57   10 S #1 F120 101  -1.0 102  -1.0 107  -1.0 108  -1.0 111   4.0 112   4.0
   58   11 S #1 F102 101   1.0 102   1.0 107  -3.0 108  -3.0
   59   12 O #2 X    109   1.0 110  -1.0
   60   13 O #2 X     11   1.0
   61   14 O #2 X     12   1.0
   62   15 O #2 XY    13   1.0
   63   16 O #2 XY    14   1.0
   64   17 O #2 XZ    15   1.0
   65   18 O #2 XZ    33   1.0
   66   19 O #2 F300  34   1.0
   67   20 O #2 F120  35   1.0
   68   21 O #2 F111  40  -1.0  45  -1.0  47   4.0
   69   22 O #2 F102  40   3.0  45  -1.0

    IRREDUCIBLE REPRESENTATION NUMBER 3

   70    1 S #1 Y     49   1.0  50  -1.0
   71    2 S #1 Y     51   1.0  52  -1.0
   72    3 S #1 Y     53   1.0  54  -1.0
   73    4 S #1 Y     55   1.0  56  -1.0
   74    5 S #1 Y     57   1.0  58  -1.0
   75    6 S #1 YZ    65   1.0  66   1.0
   76    7 S #1 YZ    67   1.0  68   1.0
   77    8 S #1 YZ    69   1.0  70   1.0
   78    9 S #1 F210  71   1.0  72  -1.0
   79   10 S #1 F030  73   1.0  74  -1.0
   80   11 S #1 F012  75   1.0  76  -1.0
   81   12 O #2 S     77  -1.0  78   1.0  89  -1.0  90   1.0  97   2.0  98  -2.0
   82   13 O #2 S     79  -1.0  80   1.0  91  -1.0  92   1.0  99   2.0 100  -2.0
   83   14 O #2 S     77   1.0  78  -1.0  89  -1.0  90   1.0
   84   15 O #2 S     79   1.0  80  -1.0  91  -1.0  92   1.0
   85   16 O #2 S     93   1.0  94   1.0
   86   17 O #2 Y     95   1.0  96   1.0
   87   18 O #2 Y    103  -1.0 104  -1.0 113  -1.0 114  -1.0 117   4.0 118   4.0
   88   19 O #2 Y    105  -3.0 106   3.0 115  -3.0 116   3.0 119   2.0 120  -2.0
   89   20 O #2 Z    103   3.0 104   3.0 113  -1.0 114  -1.0
   90   21 O #2 Z    105   1.0 106  -1.0 115  -1.0 116   1.0
   91   22 O #2 Z     24   1.0
   92   23 O #2 XX    25   1.0
   93   24 O #2 XX    26   1.0
   94   25 O #2 YY    43   1.0
   95   26 O #2 YY    59   1.0  60  -1.0
   96   27 O #2 YZ    61   1.0  62  -1.0
   97   28 O #2 YZ    63   1.0  64  -1.0
   98   29 O #2 ZZ    81   1.0  82   1.0
   99   30 O #2 ZZ    83   1.0  84   1.0
  100   31 O #2 F210  85   1.0  86  -1.0
  101   32 O #2 F201  87   1.0  88  -1.0
  102   33 O #2 F030 101  -1.0 102   1.0 107  -1.0 108   1.0 111   4.0 112  -4.0
  103   34 O #2 F021 101   1.0 102  -1.0 107  -3.0 108   3.0
  104   35 O #2 F012 109   1.0 110   1.0
  105   36 O #2 F003

    IRREDUCIBLE REPRESENTATION NUMBER 4

  106    1 S #1 XY  
  107    2 S #1 XY  
  108    3 S #1 XY  
  109    4 S #1 F111
  110    5 O #2 X   
  111    6 O #2 X   
  112    7 O #2 X   
  113    8 O #2 XY  
  114    9 O #2 XY  
  115   10 O #2 XZ  
  116   11 O #2 XZ  
  117   12 O #2 F300
  118   13 O #2 F120
  119   14 O #2 F111
  120   15 O #2 F102

NUCLEAR REPULSION ENERGY:  108.3934287705 A.U.

One-electron integrals took 0.036567 seconds

  @TWOEL-I,     411910 INTEGRALS OF SYMMETRY TYPE  I I I I
  @TWOEL-I,    1386416 INTEGRALS OF SYMMETRY TYPE  I J I J
  @TWOEL-I,     740942 INTEGRALS OF SYMMETRY TYPE  I I J J
  @TWOEL-I,     936243 INTEGRALS OF SYMMETRY TYPE  I J K L
  @TWOEL-I, TOTAL NUMBER OF 2-E INTEGRALS    3475511

Two-electron integrals took 3.191725 seconds

Nuclear repulsion energy: 108.393428770527
--executable xvmol finished with status     0 in        3.55 seconds (walltime).
 --invoking executable--
/project1/nike/cfour_v2.00beta_May2019xnmol_noLABBASIS/bin/xvmol2ja
--executable xvmol2ja finished with status     0 in        0.04 seconds (walltime).
 --invoking executable--
/project1/nike/cfour_v2.00beta_May2019xnmol_noLABBASIS/bin/xvscf
  There are  104 functions in the AO basis.

  There are 4 irreducible representations.

       Irrep        # of functions
         1                 39
         2                 20
         3                 31
         4                 14


  Parameters for SCF calculation: 
        SCF reference function: ROHF  
  Maximum number of iterations: 9999
     Full symmetry point group: C2v 
     Computational point group: C2v 
        Initial density matrix: CORE                   
     SCF convergence tolerance: 10**(-12)
  DIIS convergence acceleration:  ON
          Latest start for DIIS:   5
                     DIIS order:   6

  Memory information:     528815 words required.
  Fock matrices are constructed from AO integral file.
 @GETMEM-I,  Allocated       4 MB of main memory.
  Initialization and symmetry analysis required      0.002 seconds.

  @INITGES-I, Occupancies from core Hamiltonian:

          Alpha population by irrep:   8    3    4    1
           Beta population by irrep:   7    3    4    1


 total no. of electrons in initial guess :  0.000000000000000E+000
 total no. of electrons in initial guess :  0.000000000000000E+000
  --------------------------------------------------------------------
  Iteration         Total Energy            Largest Density Difference
  --------------------------------------------------------------------
       0           108.393428770527350              0.0000000000D+00
   current occupation vector 
     8  3  4  1
     7  3  4  1
  processed                 411910  ao basis integrals from 
                   687  buffers.
  processed                 740942  ao basis integrals from 
                  1235  buffers.
  processed                1386416  ao basis integrals from 
                  2311  buffers.
       1          -373.079715876016792              0.2757222287D+01
   current occupation vector 
     8  3  4  1
     7  3  4  1
  processed                 411910  ao basis integrals from 
                   687  buffers.
  processed                 740942  ao basis integrals from 
                  1235  buffers.
  processed                1386416  ao basis integrals from 
                  2311  buffers.
       2          -400.881172920889469              0.2747601953D+01
   current occupation vector 
     7  2  6  1
     7  1  6  1
  processed                 411910  ao basis integrals from 
                   687  buffers.
  processed                 740942  ao basis integrals from 
                  1235  buffers.
  processed                1386416  ao basis integrals from 
                  2311  buffers.
       3          -407.409095396489477              0.3131711488D+01
   current occupation vector 
     8  3  4  1
     7  3  4  1
  processed                 411910  ao basis integrals from 
                   687  buffers.
  processed                 740942  ao basis integrals from 
                  1235  buffers.
  processed                1386416  ao basis integrals from 
                  2311  buffers.
       4          -400.569019510401915              0.3132325469D+01
   current occupation vector 
     7  2  6  1
     7  1  6  1
 
 sum over diagonal and offdiagdiagonal of C(T)*S*C for irrep
                     1
 -1.283417816466681E-013  1.463146427498632E-013
 reorthoganalization of MOs is carried out
 sum over diagonal and offdiagdiagonal of C(T)*S*C for irrep
                     1
 -3.930189507173054E-014  3.214136486586608E-014
 
 sum over diagonal and offdiagdiagonal of C(T)*S*C for irrep
                     2
 -5.773159728050814E-015 -4.876474037653734E-014
 reorthoganalization of MOs is carried out
 sum over diagonal and offdiagdiagonal of C(T)*S*C for irrep
                     2
 -2.109423746787797E-015 -3.007102699782564E-015
 
 sum over diagonal and offdiagdiagonal of C(T)*S*C for irrep
                     3
  3.060884878891557E-013  5.549648178528169E-013
 reorthoganalization of MOs is carried out
 sum over diagonal and offdiagdiagonal of C(T)*S*C for irrep
                     3
  7.549516567451064E-015  7.774802079250968E-015
 
 sum over diagonal and offdiagdiagonal of C(T)*S*C for irrep
                     4
  4.662936703425657E-015 -4.193653887693549E-013
 reorthoganalization of MOs is carried out
 sum over diagonal and offdiagdiagonal of C(T)*S*C for irrep
                     4
 -1.332267629550188E-015 -1.495982157595499E-015
  processed                 411910  ao basis integrals from 
                   687  buffers.
  processed                 740942  ao basis integrals from 
                  1235  buffers.
  processed                1386416  ao basis integrals from 
                  2311  buffers.
       5          -407.485774848966742              0.3131711527D+01
   current occupation vector 
     8  3  4  1
     7  3  4  1
  processed                 411910  ao basis integrals from 
                   687  buffers.
  processed                 740942  ao basis integrals from 
                  1235  buffers.
  processed                1386416  ao basis integrals from 
                  2311  buffers.
       6          -434.061857138421544              0.1491322363D+01
   current occupation vector 
     8  3  4  1
     7  3  4  1
  processed                 411910  ao basis integrals from 
                   687  buffers.
  processed                 740942  ao basis integrals from 
                  1235  buffers.
  processed                1386416  ao basis integrals from 
                  2311  buffers.
       7          -437.192724369539576              0.3389748783D-01
   current occupation vector 
     8  3  4  1
     7  3  4  1
  processed                 411910  ao basis integrals from 
                   687  buffers.
  processed                 740942  ao basis integrals from 
                  1235  buffers.
  processed                1386416  ao basis integrals from 
                  2311  buffers.
       8          -440.387301369042518              0.3602227704D-01
   current occupation vector 
     8  3  4  1
     7  3  4  1
  processed                 411910  ao basis integrals from 
                   687  buffers.
  processed                 740942  ao basis integrals from 
                  1235  buffers.
  processed                1386416  ao basis integrals from 
                  2311  buffers.
       9          -441.043741504050047              0.1410383522D-01
   current occupation vector 
     8  3  4  1
     7  3  4  1
 
 sum over diagonal and offdiagdiagonal of C(T)*S*C for irrep
                     1
  3.474998067076740E-014  2.827910318177996E-014
 reorthoganalization of MOs is carried out
 sum over diagonal and offdiagdiagonal of C(T)*S*C for irrep
                     1
 -2.065014825802791E-014 -8.867591253380055E-015
 
 sum over diagonal and offdiagdiagonal of C(T)*S*C for irrep
                     2
  3.419486915845482E-014  4.952399413479737E-016
 reorthoganalization of MOs is carried out
 sum over diagonal and offdiagdiagonal of C(T)*S*C for irrep
                     2
  1.110223024625157E-016  2.399667103581890E-015
 
 sum over diagonal and offdiagdiagonal of C(T)*S*C for irrep
                     3
 -6.261657858885883E-014 -6.451625680793441E-015
 reorthoganalization of MOs is carried out
 sum over diagonal and offdiagdiagonal of C(T)*S*C for irrep
                     3
 -7.105427357601002E-015  3.542477776978217E-015
 
 sum over diagonal and offdiagdiagonal of C(T)*S*C for irrep
                     4
  3.896882816434299E-014  1.819769649639286E-014
 reorthoganalization of MOs is carried out
 sum over diagonal and offdiagdiagonal of C(T)*S*C for irrep
                     4
 -2.220446049250313E-016 -1.113123265436555E-015
  processed                 411910  ao basis integrals from 
                   687  buffers.
  processed                 740942  ao basis integrals from 
                  1235  buffers.
  processed                1386416  ao basis integrals from 
                  2311  buffers.
      10          -441.986654240609425              0.9018893678D-02
   current occupation vector 
     8  3  4  1
     7  3  4  1
  processed                 411910  ao basis integrals from 
                   687  buffers.
  processed                 740942  ao basis integrals from 
                  1235  buffers.
  processed                1386416  ao basis integrals from 
                  2311  buffers.
      11          -443.516807384116589              0.2973106654D+01
   current occupation vector 
     8  1  6  1
     8  1  5  1
  processed                 411910  ao basis integrals from 
                   687  buffers.
  processed                 740942  ao basis integrals from 
                  1235  buffers.
  processed                1386416  ao basis integrals from 
                  2311  buffers.
      12          -480.243455352163949              0.2461954906D+01
   current occupation vector 
     8  3  4  1
     7  3  4  1
  processed                 411910  ao basis integrals from 
                   687  buffers.
  processed                 740942  ao basis integrals from 
                  1235  buffers.
  processed                1386416  ao basis integrals from 
                  2311  buffers.
      13          -513.996116271772962              0.5572049808D+00
   current occupation vector 
     8  3  4  1
     8  2  4  1
  processed                 411910  ao basis integrals from 
                   687  buffers.
  processed                 740942  ao basis integrals from 
                  1235  buffers.
  processed                1386416  ao basis integrals from 
                  2311  buffers.
      14          -528.304893585716172              0.4552309695D+00
   current occupation vector 
     8  2  5  1
     8  2  4  1
 
 sum over diagonal and offdiagdiagonal of C(T)*S*C for irrep
                     1
  7.183142969324763E-014  2.914596323782877E-014
 reorthoganalization of MOs is carried out
 sum over diagonal and offdiagdiagonal of C(T)*S*C for irrep
                     1
  1.698641227676490E-014 -4.095016282660006E-014
 
 sum over diagonal and offdiagdiagonal of C(T)*S*C for irrep
                     2
  7.893685705084863E-014 -8.556162206294258E-015
 reorthoganalization of MOs is carried out
 sum over diagonal and offdiagdiagonal of C(T)*S*C for irrep
                     2
 -8.881784197001252E-016 -1.276869729270956E-015
 
 sum over diagonal and offdiagdiagonal of C(T)*S*C for irrep
                     3
  4.429789868254375E-014 -6.512790007545574E-014
 reorthoganalization of MOs is carried out
 sum over diagonal and offdiagdiagonal of C(T)*S*C for irrep
                     3
 -4.185540802836840E-014  3.773140118972774E-014
 
 sum over diagonal and offdiagdiagonal of C(T)*S*C for irrep
                     4
  4.318767565791859E-014  2.871093391244167E-014
 reorthoganalization of MOs is carried out
 sum over diagonal and offdiagdiagonal of C(T)*S*C for irrep
                     4
 -4.440892098500626E-016 -1.141461599719895E-015
  processed                 411910  ao basis integrals from 
                   687  buffers.
  processed                 740942  ao basis integrals from 
                  1235  buffers.
  processed                1386416  ao basis integrals from 
                  2311  buffers.
      15          -542.412561736683074              0.5284151423D+00
   current occupation vector 
     8  2  5  1
     7  2  5  1
  processed                 411910  ao basis integrals from 
                   687  buffers.
  processed                 740942  ao basis integrals from 
                  1235  buffers.
  processed                1386416  ao basis integrals from 
                  2311  buffers.
      16          -545.906275434748068              0.6020249439D+00
   current occupation vector 
     8  2  5  1
     7  2  5  1
  processed                 411910  ao basis integrals from 
                   687  buffers.
  processed                 740942  ao basis integrals from 
                  1235  buffers.
  processed                1386416  ao basis integrals from 
                  2311  buffers.
      17          -546.734884822380536              0.4925708227D+00
   current occupation vector 
     8  2  5  1
     7  2  5  1
  processed                 411910  ao basis integrals from 
                   687  buffers.
  processed                 740942  ao basis integrals from 
                  1235  buffers.
  processed                1386416  ao basis integrals from 
                  2311  buffers.
      18          -546.841576344353371              0.4116675915D-01
   current occupation vector 
     8  2  5  1
     7  2  5  1
  processed                 411910  ao basis integrals from 
                   687  buffers.
  processed                 740942  ao basis integrals from 
                  1235  buffers.
  processed                1386416  ao basis integrals from 
                  2311  buffers.
      19          -546.843742238138248              0.1749339718D-01
   current occupation vector 
     8  2  5  1
     7  2  5  1
 
 sum over diagonal and offdiagdiagonal of C(T)*S*C for irrep
                     1
  4.740652315149418E-014 -1.446811038943695E-013
 reorthoganalization of MOs is carried out
 sum over diagonal and offdiagdiagonal of C(T)*S*C for irrep
                     1
 -3.663735981263017E-014  8.932337579875052E-014
 
 sum over diagonal and offdiagdiagonal of C(T)*S*C for irrep
                     2
 -3.441691376337985E-014 -4.339013357885043E-016
 reorthoganalization of MOs is carried out
 sum over diagonal and offdiagdiagonal of C(T)*S*C for irrep
                     2
 -1.776356839400250E-015 -1.297437475940413E-015
 
 sum over diagonal and offdiagdiagonal of C(T)*S*C for irrep
                     3
  8.615330671091215E-014 -7.475213133325855E-015
 reorthoganalization of MOs is carried out
 sum over diagonal and offdiagdiagonal of C(T)*S*C for irrep
                     3
  4.662936703425657E-015 -2.261441547399073E-014
 
 sum over diagonal and offdiagdiagonal of C(T)*S*C for irrep
                     4
 -8.215650382226158E-015  1.935676748756970E-014
 reorthoganalization of MOs is carried out
 sum over diagonal and offdiagdiagonal of C(T)*S*C for irrep
                     4
 -1.110223024625157E-016  4.786571749989263E-015
  processed                 411910  ao basis integrals from 
                   687  buffers.
  processed                 740942  ao basis integrals from 
                  1235  buffers.
  processed                1386416  ao basis integrals from 
                  2311  buffers.
      20          -546.844206843050188              0.5275860627D-02
   current occupation vector 
     8  2  5  1
     7  2  5  1
  processed                 411910  ao basis integrals from 
                   687  buffers.
  processed                 740942  ao basis integrals from 
                  1235  buffers.
  processed                1386416  ao basis integrals from 
                  2311  buffers.
      21          -546.844309147692911              0.2791023743D-02
   current occupation vector 
     8  2  5  1
     7  2  5  1
  processed                 411910  ao basis integrals from 
                   687  buffers.
  processed                 740942  ao basis integrals from 
                  1235  buffers.
  processed                1386416  ao basis integrals from 
                  2311  buffers.
      22          -546.844331192286973              0.1184634805D-02
   current occupation vector 
     8  2  5  1
     7  2  5  1
  processed                 411910  ao basis integrals from 
                   687  buffers.
  processed                 740942  ao basis integrals from 
                  1235  buffers.
  processed                1386416  ao basis integrals from 
                  2311  buffers.
      23          -546.844335347075003              0.5552986591D-03
   current occupation vector 
     8  2  5  1
     7  2  5  1
  processed                 411910  ao basis integrals from 
                   687  buffers.
  processed                 740942  ao basis integrals from 
                  1235  buffers.
  processed                1386416  ao basis integrals from 
                  2311  buffers.
      24          -546.844336357493148              0.3823190696D-03
   current occupation vector 
     8  2  5  1
     7  2  5  1
 
 sum over diagonal and offdiagdiagonal of C(T)*S*C for irrep
                     1
 -1.831867990631508E-014  6.248596690351958E-014
 reorthoganalization of MOs is carried out
 sum over diagonal and offdiagdiagonal of C(T)*S*C for irrep
                     1
  1.310063169057685E-014 -1.268451751213589E-013
 
 sum over diagonal and offdiagdiagonal of C(T)*S*C for irrep
                     2
  3.785860513971784E-014  6.989932006492934E-016
 reorthoganalization of MOs is carried out
 sum over diagonal and offdiagdiagonal of C(T)*S*C for irrep
                     2
  4.440892098500626E-016  7.889015393053807E-016
 
 sum over diagonal and offdiagdiagonal of C(T)*S*C for irrep
                     3
  1.496580637194711E-013 -8.523120952354680E-015
 reorthoganalization of MOs is carried out
 sum over diagonal and offdiagdiagonal of C(T)*S*C for irrep
                     3
 -1.554312234475219E-014  2.161620806587641E-014
 
 sum over diagonal and offdiagdiagonal of C(T)*S*C for irrep
                     4
  3.619327060278010E-014 -2.936533632089729E-015
 reorthoganalization of MOs is carried out
 sum over diagonal and offdiagdiagonal of C(T)*S*C for irrep
                     4
  6.661338147750939E-016  1.804873474118987E-015
  processed                 411910  ao basis integrals from 
                   687  buffers.
  processed                 740942  ao basis integrals from 
                  1235  buffers.
  processed                1386416  ao basis integrals from 
                  2311  buffers.
      25          -546.844336463263062              0.1129633922D-03
   current occupation vector 
     8  2  5  1
     7  2  5  1
  processed                 411910  ao basis integrals from 
                   687  buffers.
  processed                 740942  ao basis integrals from 
                  1235  buffers.
  processed                1386416  ao basis integrals from 
                  2311  buffers.
      26          -546.844336479874983              0.5560718674D-04
   current occupation vector 
     8  2  5  1
     7  2  5  1
  processed                 411910  ao basis integrals from 
                   687  buffers.
  processed                 740942  ao basis integrals from 
                  1235  buffers.
  processed                1386416  ao basis integrals from 
                  2311  buffers.
      27          -546.844336480076208              0.4853073291D-05
   current occupation vector 
     8  2  5  1
     7  2  5  1
  processed                 411910  ao basis integrals from 
                   687  buffers.
  processed                 740942  ao basis integrals from 
                  1235  buffers.
  processed                1386416  ao basis integrals from 
                  2311  buffers.
      28          -546.844336480085076              0.1159077901D-05
   current occupation vector 
     8  2  5  1
     7  2  5  1
  processed                 411910  ao basis integrals from 
                   687  buffers.
  processed                 740942  ao basis integrals from 
                  1235  buffers.
  processed                1386416  ao basis integrals from 
                  2311  buffers.
      29          -546.844336480088941              0.6209252824D-06
   current occupation vector 
     8  2  5  1
     7  2  5  1
 
 sum over diagonal and offdiagdiagonal of C(T)*S*C for irrep
                     1
  1.687538997430238E-013 -1.235613361975071E-013
 reorthoganalization of MOs is carried out
 sum over diagonal and offdiagdiagonal of C(T)*S*C for irrep
                     1
 -1.498801083243961E-014  3.954128799895105E-014
 
 sum over diagonal and offdiagdiagonal of C(T)*S*C for irrep
                     2
  4.429789868254375E-014  8.700981851271160E-015
 reorthoganalization of MOs is carried out
 sum over diagonal and offdiagdiagonal of C(T)*S*C for irrep
                     2
  1.221245327087672E-015  3.109549018647256E-015
 
 sum over diagonal and offdiagdiagonal of C(T)*S*C for irrep
                     3
  5.573319583618286E-014  3.147519130837128E-014
 reorthoganalization of MOs is carried out
 sum over diagonal and offdiagdiagonal of C(T)*S*C for irrep
                     3
  2.664535259100376E-015 -2.535425268753941E-014
 
 sum over diagonal and offdiagdiagonal of C(T)*S*C for irrep
                     4
  2.942091015256665E-014  5.887874247130411E-016
 reorthoganalization of MOs is carried out
 sum over diagonal and offdiagdiagonal of C(T)*S*C for irrep
                     4
  1.110223024625157E-016  1.306240424663431E-015
  processed                 411910  ao basis integrals from 
                   687  buffers.
  processed                 740942  ao basis integrals from 
                  1235  buffers.
  processed                1386416  ao basis integrals from 
                  2311  buffers.
      30          -546.844336480089851              0.2100152753D-06
   current occupation vector 
     8  2  5  1
     7  2  5  1
  processed                 411910  ao basis integrals from 
                   687  buffers.
  processed                 740942  ao basis integrals from 
                  1235  buffers.
  processed                1386416  ao basis integrals from 
                  2311  buffers.
      31          -546.844336480086213              0.8912997342D-07
   current occupation vector 
     8  2  5  1
     7  2  5  1
  processed                 411910  ao basis integrals from 
                   687  buffers.
  processed                 740942  ao basis integrals from 
                  1235  buffers.
  processed                1386416  ao basis integrals from 
                  2311  buffers.
      32          -546.844336480087804              0.1318451615D-07
   current occupation vector 
     8  2  5  1
     7  2  5  1
  processed                 411910  ao basis integrals from 
                   687  buffers.
  processed                 740942  ao basis integrals from 
                  1235  buffers.
  processed                1386416  ao basis integrals from 
                  2311  buffers.
      33          -546.844336480086668              0.8111555080D-08
   current occupation vector 
     8  2  5  1
     7  2  5  1
  processed                 411910  ao basis integrals from 
                   687  buffers.
  processed                 740942  ao basis integrals from 
                  1235  buffers.
  processed                1386416  ao basis integrals from 
                  2311  buffers.
      34          -546.844336480086668              0.1158553503D-08
   current occupation vector 
     8  2  5  1
     7  2  5  1
 
 sum over diagonal and offdiagdiagonal of C(T)*S*C for irrep
                     1
  1.837419105754634E-013 -9.558199526591674E-014
 reorthoganalization of MOs is carried out
 sum over diagonal and offdiagdiagonal of C(T)*S*C for irrep
                     1
  5.329070518200751E-015  8.737346586176080E-014
 
 sum over diagonal and offdiagdiagonal of C(T)*S*C for irrep
                     2
  1.543210004228968E-014  4.090356235071813E-014
 reorthoganalization of MOs is carried out
 sum over diagonal and offdiagdiagonal of C(T)*S*C for irrep
                     2
  1.443289932012704E-015  2.244428384253500E-015
 
 sum over diagonal and offdiagdiagonal of C(T)*S*C for irrep
                     3
  1.674216321134736E-013  3.109451921953567E-014
 reorthoganalization of MOs is carried out
 sum over diagonal and offdiagdiagonal of C(T)*S*C for irrep
                     3
  3.774758283725532E-015 -1.950555149902983E-014
 
 sum over diagonal and offdiagdiagonal of C(T)*S*C for irrep
                     4
  2.209343819004062E-014  1.568583723196917E-014
 reorthoganalization of MOs is carried out
 sum over diagonal and offdiagdiagonal of C(T)*S*C for irrep
                     4
  1.998401444325282E-015  8.970832770746097E-016
  processed                 411910  ao basis integrals from 
                   687  buffers.
[...]
   -0.013346  9a 7b -> 10a 9b                                           
   -0.013144  9a 7b -> 16a 9b                                           
   -0.035879  7a 3b -> 10a 9b                                           
   -0.044363  7a 5b -> 10a 9b                                           
   -0.011749  7a 5b -> 16a 9b                                           
   -0.021508  2a 4b -> 10a 9b                                           
   -0.020000  6a 4b -> 10a 9b                                           
   -0.109199  4a 2b -> 10a 9b                                           
   -0.011764  4a 2b -> 14a 9b                                           
    0.027034  4a 2b -> 16a 9b                                           
   -0.016600  4a 2b -> 24a 9b                                           
   -0.050229  4a 6b -> 10a 9b                                           
    0.012300  4a 6b -> 16a 9b                                           
   -0.012419  5a 2b -> 12a 9b                                           
    0.054159  9a 2b -> 12a 9b                                           
    0.021630  9a 2b -> 15a 9b                                           
    0.017344  9a 2b -> 25a 9b                                           
    0.010425  9a 2b -> 29a 9b                                           
    0.025985  9a 6b -> 12a 9b                                           
    0.016508  9a 6b -> 15a 9b                                           
    0.010375  9a 8b -> 12a 9b                                           
   -0.010932  2a 3b -> 12a 9b                                           
   -0.019625  6a 3b -> 12a 9b                                           
   -0.017434  6a 3b -> 15a 9b                                           
   -0.025331  2a 5b -> 12a 9b                                           
   -0.021397  6a 5b -> 12a 9b                                           
   -0.013889  6a 5b -> 15a 9b                                           
   -0.011308  7a 2b -> 19a 9b                                           
    0.010347  7a 2b -> 22a 9b                                           
   -0.019466  4a 3b -> 19a 9b                                           
   -0.019074  4a 5b -> 19a 9b                                           
   -0.016205  2b 4b -> 10b 11b                                          
   -0.014484  2b 4b -> 10b 18b                                          
    0.015563  2b 4b -> 10b 21b                                          
   -0.021982  4b 6b -> 10b 11b                                          
   -0.017367  4b 6b -> 10b 17b                                          
    0.010520  3b 7b -> 10b 17b                                          
   -0.020064  5b 7b -> 10b 11b                                          
    0.011718  5b 7b -> 10b 13b                                          
    0.012113  5b 7b -> 16b 18b                                          
    0.013432  4b 7b -> 10b 19b                                          
    0.022769  2b 7b -> 10b 12b                                          
    0.013181  2b 7b -> 10b 15b                                          
    0.013280  6b 7b -> 10b 15b                                          
    0.010232  6b 7b -> 10b 29b                                          
   -0.013714  3a 3b -> 11a 11b                                          
   -0.010007  3a 3b -> 17a 17b                                          
    0.012402  5a 3b -> 18a 11b                                          
    0.010564  3a 5b -> 11a 18b                                          
   -0.016222  5a 5b -> 11a 11b                                          
   -0.011648  5a 5b -> 13a 13b                                          
   -0.019357  5a 5b -> 18a 18b                                          
   -0.027421  7a 7b -> 11a 11b                                          
   -0.019700  2a 2b -> 11a 11b                                          
   -0.012581  2a 2b -> 18a 11b                                          
   -0.013608  2a 2b -> 11a 18b                                          
    0.013768  2a 2b -> 11a 21b                                          
    0.010407  2a 2b -> 18a 21b                                          
   -0.011597  2a 2b -> 21a 21b                                          
    0.014552  2a 6b -> 11a 11b                                          
    0.010533  2a 6b -> 18a 11b                                          
    0.011304  2a 6b -> 11a 17b                                          
   -0.012247  6a 6b -> 17a 17b                                          
   -0.036109  3a 3b -> 10a 10b                                          
   -0.017053  5a 3b -> 16a 10b                                          
   -0.024227  9a 3b -> 10a 10b                                          
   -0.010800  9a 3b -> 16a 10b                                          
    0.011412  9a 3b -> 30a 10b                                          
   -0.010043  9a 3b -> 10a 16b                                          
   -0.022050  3a 5b -> 10a 10b                                          
   -0.011978  3a 5b -> 16a 10b                                          
   -0.020750  3a 5b -> 10a 16b                                          
   -0.015298  5a 5b -> 10a 10b                                          
   -0.012932  5a 5b -> 16a 16b                                          
   -0.026785  9a 5b -> 10a 10b                                          
   -0.014532  9a 5b -> 16a 10b                                          
   -0.019033  9a 5b -> 10a 16b                                          
   -0.070690  7a 7b -> 10a 10b                                          
   -0.015480  7a 7b -> 14a 10b                                          
   -0.012058  7a 7b -> 24a 10b                                          
   -0.015573  7a 7b -> 10a 14b                                          
   -0.013577  7a 7b -> 14a 14b                                          
   -0.017885  7a 7b -> 16a 16b                                          
   -0.012595  7a 7b -> 10a 24b                                          
   -0.012052  2a 2b -> 10a 10b                                          
   -0.013022  6a 6b -> 10a 10b                                          
   -0.103092  4a 4b -> 10a 10b                                          
    0.030910  4a 4b -> 16a 10b                                          
   -0.022486  4a 4b -> 24a 10b                                          
   -0.010194  4a 4b -> 10a 14b                                          
    0.030047  4a 4b -> 10a 16b                                          
   -0.022860  4a 4b -> 10a 24b                                          
   -0.010346  4a 4b -> 24a 24b                                          
   -0.012750  3a 3b -> 12a 12b                                          
   -0.011731  3a 3b -> 12a 15b                                          
   -0.010534  3a 3b -> 15a 15b                                          
   -0.015484  3a 5b -> 12a 12b                                          
   -0.011785  3a 5b -> 15a 12b                                          
   -0.013784  3a 5b -> 12a 15b                                          
   -0.018585  5a 5b -> 12a 12b                                          
   -0.011754  5a 5b -> 12a 15b                                          
   -0.010275  9a 5b -> 12a 15b                                          
   -0.019630  2a 2b -> 12a 12b                                          
   -0.016915  6a 2b -> 12a 12b                                          
   -0.012305  6a 2b -> 15a 12b                                          
   -0.011357  6a 2b -> 12a 15b                                          
   -0.010164  6a 6b -> 12a 12b                                          
   -0.011518  6a 6b -> 12a 15b                                          
   -0.011553  6a 6b -> 15a 15b                                          
   -0.010212  6a 6b -> 29a 29b                                          
   -0.010325  3a 3b -> 19a 19b                                          
   -0.019138  7a 7b -> 19a 19b                                          
   -0.015475  4a 4b -> 19a 19b                                          
   -0.012991  4a 4b -> 22a 22b                                          
   -0.012338  1a 7b -> 11a 10b                                          
   -0.013417  3a 7b -> 17a 10b                                          
    0.018109  5a 7b -> 11a 10b                                          
    0.010058  5a 7b -> 18a 10b                                          
   -0.011289  5a 7b -> 18a 16b                                          
    0.016309  9a 7b -> 26a 10b                                          
   -0.013271  9a 7b -> 28a 10b                                          
   -0.020231  7a 3b -> 11a 10b                                          
    0.011110  7a 3b -> 18a 10b                                          
   -0.010643  7a 5b -> 11a 16b                                          
    0.033283  2a 4b -> 11a 10b                                          
    0.023448  2a 4b -> 18a 10b                                          
   -0.019214  2a 4b -> 21a 10b                                          
   -0.011755  6a 4b -> 11a 10b                                          
   -0.016757  6a 4b -> 17a 10b                                          
   -0.012307  8a 4b -> 11a 10b                                          
   -0.010041  8a 4b -> 26a 10b                                          
   -0.020246  3a 7b -> 10a 11b                                          
    0.014249  3a 7b -> 10a 18b                                          
   -0.012555  5a 7b -> 16a 11b                                          
   -0.016315  9a 7b -> 10a 11b                                          
   -0.012055  7a 1b -> 10a 11b                                          
   -0.014511  7a 3b -> 10a 11b                                          
   -0.010118  7a 3b -> 14a 11b                                          
    0.010288  7a 3b -> 16a 11b                                          
   -0.016971  7a 3b -> 10a 17b                                          
    0.011864  7a 5b -> 10a 11b                                          
   -0.011176  7a 5b -> 10a 13b                                          
    0.022344  4a 2b -> 10a 11b                                          
   -0.011422  4a 2b -> 10a 13b                                          
    0.019942  4a 2b -> 10a 18b                                          
   -0.020992  4a 2b -> 10a 21b                                          
    0.012692  4a 2b -> 10a 23b                                          
   -0.024518  4a 6b -> 10a 11b                                          
   -0.021284  4a 6b -> 10a 17b                                          
    0.010336  4a 6b -> 10a 28b                                          
   -0.013210  4a 8b -> 10a 11b                                          
   -0.011337  3a 7b -> 12a 19b                                          
   -0.010328  6a 4b -> 12a 19b                                          
   -0.012113  7a 5b -> 19a 12b                                          
   -0.010434  4a 2b -> 19a 12b                                          
    0.015155  5a 2b -> 11a 12b                                          
   -0.013102  3a 2b -> 10a 19b                                          
   -0.016368  3a 6b -> 10a 19b                                          
   -0.034727  7a 4b -> 10a 19b                                          
    0.015149  7a 4b -> 10a 22b                                          
   -0.010390  6a 3b -> 10a 19b                                          
   -0.021225  4a 7b -> 10a 19b                                          
    0.015619  4a 7b -> 10a 22b                                          
   -0.011264  9a 2b -> 12a 18b                                          
    0.012668  9a 2b -> 12a 21b                                          
    0.016047  9a 6b -> 12a 11b                                          
    0.011234  9a 6b -> 12a 17b                                          
   -0.019693  7a 4b -> 19a 10b                                          
    0.014915  7a 4b -> 22a 10b                                          
   -0.016397  6a 3b -> 19a 10b                                          
   -0.034261  4a 7b -> 19a 10b                                          
    0.014813  4a 7b -> 22a 10b                                          
    0.010463  5a 4b -> 11a 19b                                          
   -0.030572  7a 2b -> 10a 12b                                          
   -0.016930  7a 2b -> 10a 15b                                          
   -0.012220  7a 2b -> 10a 25b                                          
   -0.011700  7a 6b -> 10a 12b                                          
   -0.017012  7a 6b -> 10a 15b                                          
   -0.014932  7a 6b -> 10a 29b                                          
   -0.016105  4a 5b -> 10a 12b                                          
    0.031558  9a 4b -> 12a 10b                                          
    0.015237  9a 4b -> 15a 10b                                          
    0.010691  9a 4b -> 25a 10b                                          
   -0.013180  9a 4b -> 12a 16b                                          
   -0.016512  2a 7b -> 12a 10b                                          
   -0.018136  6a 7b -> 12a 10b                                          
   -0.015852  6a 7b -> 15a 10b                                          
   -0.011956  6a 7b -> 29a 10b                                          
   -0.024739  2a 4a -> 10a 11a                                          
   -0.016585  2a 4a -> 10a 18a                                          
    0.013188  2a 4a -> 10a 21a                                          
   -0.010246  4a 6a -> 10a 11a                                          
   -0.012083  4a 6a -> 10a 17a                                          
   -0.010919  3a 7a -> 10a 11a                                          
   -0.018056  5a 7a -> 10a 11a                                          
    0.013521  5a 7a -> 16a 18a                                          
    0.014343  7a 9a -> 10a 11a                                          
   -0.010148  7a 9a -> 10a 18a                                          
    0.012158  7a 9a -> 10a 26a                                          
    0.014578  4a 7a -> 10a 19a                                          
   -0.016378  2a 9a -> 11a 12a                                          
    0.012108  2a 7a -> 10a 12a                                          
    0.013234  6a 7a -> 10a 12a                                          
    0.012198  6a 7a -> 10a 15a                                          
    0.030638  4a 9a -> 10a 12a                                          
    0.013644  4a 9a -> 10a 15a                                          
   -0.021553  7a 2b 4b -> 10a 10b 9b                                    
   -0.010287  4a 3b 4b -> 10a 10b 9b                                    
    0.015198  4a 4b 5b -> 10a 10b 9b                                    
   -0.020648  4a 2b 7b -> 10a 10b 9b                                    

 ************************ 2019-08-24 22:14:08 *************************
 Executing goldstone...

 Generation of MRCC equations in terms of H and T...
 Generation of antisymmetrized Goldstone diagrams...
 Number of diagrams in T^1 equations:    15
 Number of diagrams in T^2 equations:    38
 Number of diagrams in T^3 equations:    53
 Number of diagrams in T^4 equations:    74
 Translation of diagrams to factorized equations...
 Number of restricted diagrams in T^1 equations:     30
 Number of restricted diagrams in T^2 equations:    129
 Number of restricted diagrams in T^3 equations:    302
 Number of restricted diagrams in T^4 equations:    633
 Optimizing intermediate calculation...
 Number of floating-point operations per iteration step:   3.4840E+14
 Probable CPU time per iteration step (hours):   3484.03
 Required memory (Mbytes):   68027.2
 Number of intermediates:                                 412
 Number of intermediates to be stored:                    155
 Length of intermediate file (Mbytes):  177961.8

 ************************ 2019-08-24 22:14:08 *************************
 Executing xmrcc...

 **********************************************************************
 MRCC(                     4 ) calculation 
 
 
 Allocation of****** Mbytes of memory...
 Number of spinorbitals:                   194
 Number of alpha electrons:                        9
 Number of beta electrons:                         8
 Number of active particles:                    90
 Number of active holes:                         0
 Spin multiplicity:                     2
 z-component of spin:  0.5
 Spatial symmetry:                      1
 Convergence criterion:  1.0E-05
 Construction of occupation graphs...
 Number of                     0 -fold excitations:                      1
 Number of                     1 -fold excitations:                    438
 Number of                     2 -fold excitations:                 207324
 Number of                     3 -fold excitations:               50237606
 Number of                     4 -fold excitations:             6794199014
 Total number of configurations:             6844644383
 Calculation of coupling coefficients...
 Length of intermediate file (Mbytes):  123850.3
 
 ======================================================================
 
 Memory requirements /Mbyte/: 
               Minimal        Optimal
 Real*8:      29479.8178     29479.8178
 Integer:      1533.2702
 Total:       31013.0880     31013.0880
 

 ************************ 2019-08-24 22:15:16 *************************
 Executing mrcc...

 **********************************************************************
 CCSDTQ calculation                                                     
 
 
 OpenMP parallel version is running.
 Number of CPUs:   3
 Allocation of29479.8 Mbytes of memory...
 Number of spinorbitals: 194
 Number of alpha electrons:  9
 Number of beta  electrons:  8
 Number of active particles:                    90
 Number of active holes:                         0
 Spin multiplicity: 2
 z-component of spin:  0.5
 Spatial symmetry: 1
 Convergence criterion:  1.0E-05
 Construction of occupation graphs...
 Number of 0-fold excitations: 1
 Number of 1-fold excitations: 438
 Number of 2-fold excitations: 207324
 Number of 3-fold excitations: 50237606
 Number of 4-fold excitations: 6794199014
 Total number of determinants: 6844644383
 Calculation of coupling coefficients...
 Initial cluster amplitudes are read from unit 16.
 Length of intermediate file (Mbytes):  123850.3
 Reading integral list from unit 55...
 Sorting integrals...
 Sorting integrals...
 Sorting integrals...
 Sorting integrals...
 Energy of reference determinant [au]:    -546.844336480090
 Calculation of MP denominators...
 
 Starting CC iteration...
 ======================================================================
 Norm of residual vector:     0.17180911
 CPU time [min]: 11436.528                   Wall time [min]:  4766.211
 
 Iteration  1  CC energy:  -547.53254218  Energy decrease:   0.00000007
 ======================================================================
 Norm of residual vector:     0.05673567
 CPU time [min]: 23777.400                   Wall time [min]:  9847.619
 
 Iteration  2  CC energy:  -547.53245800  Energy decrease:   0.00008418
 ======================================================================
 Norm of residual vector:     0.02815496
 CPU time [min]: 36123.197                   Wall time [min]: 14929.741
 
 Iteration  3  CC energy:  -547.53491277  Energy decrease:   0.00245476
 ======================================================================
