 --invoking executable--
/project1/nike/cfour_v2.00beta_May2019xnmol_noLABBASIS/bin/xjoda


   *************************************************************************
         <<<     CCCCCC     CCCCCC   |||     CCCCCC     CCCCCC   >>>
       <<<      CCC        CCC       |||    CCC        CCC         >>>
      <<<      CCC        CCC        |||   CCC        CCC            >>>
    <<<        CCC        CCC        |||   CCC        CCC              >>>
      <<<      CCC        CCC        |||   CCC        CCC            >>>
       <<<      CCC        CCC       |||    CCC        CCC         >>>
         <<<     CCCCCC     CCCCCC   |||     CCCCCC     CCCCCC   >>>
   *************************************************************************

     ****************************************************************
     * CFOUR Coupled-Cluster techniques for Computational Chemistry *
     ****************************************************************
 

   Department of Chemistry                Institut fuer Physikalische Chemie
   University of Texas at Austin          Universitaet Mainz
   Austin, TX  78712, USA                 D-55099 Mainz, Germany
 
                       Version 2.00beta
 
                     wob144                                            
                     Mon Mar  9 15:54:56 EDT 2020                      
                     integer*8 version is running
 
********************************************************************************
*                          Input from ZMAT file                                *
********************************************************************************
TITLE                                                                           
Si 0.000000  0.000000 -1.165500                                                 
Si 0.000000  0.000000  1.165500                                                 
H  1.399330  0.000000  1.683128                                                 
H -1.399330  0.000000 -1.683128                                                 
H  0.699500  1.211600 -1.683128                                                 
H  0.699500 -1.211600 -1.683128                                                 
H -0.699500 -1.211600  1.683128                                                 
H -0.699500  1.211600  1.683128                                                 
                                                                                
*ACES2(CALC=CCSD(T)                                                             
#UNITS=BOHR                                                                     
#GEOM=2.6729874*10/5.29177210903_Pentasilane_def2-QZVP_pbe                      
COORD=CARTESIAN                                                                 
#COORD=INTERNAL                                                                 
PRINT=4                                                                         
JODA_PRINT=4                                                                    
INPUT_MRCC=OFF                                                                  
#CC_PROG=MRCC                                                                   
FROZEN_CORE=ON                                                                  
#DROPMO=1>5                                                                     
CONTRACTION=GENERAL                                                             
#CONTRACTION=SEGMENTED                                                          
RELATIVISTIC=OFF                                                                
#EXCITE=EOMEE                                                                   
#ESTATE_CONV=5                                                                  
#ESTATE_SYM=2/2/2/2/2/2/2/2                                                     
XFORM_TOL=18                                                                    
SAVE_INTS=ON                                                                    
SCF_EXPORDER=6                                                                  
SCF_EXPSTART=5                                                                  
#SCF_DAMPING=1000                                                               
SCF_EXTRAPOLATION=ON                                                            
SCF_CONV=12                                                                     
SCF_MAXCYC=99999                                                                
CC_CONV=9                                                                       
CC_MAXCYC=999                                                                   
T3_EXTRAPOL=ON                                                                  
REFERENCE=ROHF                                                                  
#SYMMETRY=OFF                                                                   
#HFSTABILITY=FOLLOW                                                             
CHARGE=+1                                                                       
MULT=2                                                                          
ABCDTYPE=STANDARD                                                               
#OCCUPATION=3-2-2-0-1-0-0-0/3-1-1-0-1-0-0-0                                     
MEM=4                                                                           
MEM_UNIT=GB                                                                     
BASIS=SPECIAL)                                                                  
                                                                                
SI:def2-TZVPP                                                                   
SI:def2-TZVPP                                                                   
H:def2-TZVPP                                                                    
H:def2-TZVPP                                                                    
H:def2-TZVPP                                                                    
H:def2-TZVPP                                                                    
H:def2-TZVPP                                                                    
H:def2-TZVPP                                                                    
                                                                                
********************************************************************************
  @GTFLGS-W, Keyword #UNITS not known and is ignored.
  @GTFLGS-W, Keyword #GEOM not known and is ignored.
  @GTFLGS-W, Keyword #COORD not known and is ignored.
  @GTFLGS-W, Keyword #CC_PROG not known and is ignored.
  @GTFLGS-W, Keyword #DROPMO not known and is ignored.
  @GTFLGS-W, Keyword #CONTRACTION not known and is ignored.
  @GTFLGS-W, Keyword #EXCITE not known and is ignored.
  @GTFLGS-W, Keyword #ESTATE_CONV not known and is ignored.
  @GTFLGS-W, Keyword #ESTATE_SYM not known and is ignored.
  @GTFLGS-W, Keyword #SCF_DAMPING not known and is ignored.
  @GTFLGS-W, Keyword #SYMMETRY not known and is ignored.
  @GTFLGS-W, Keyword #HFSTABILITY not known and is ignored.
  @GTFLGS-W, Keyword #OCCUPATION not known and is ignored.
    -------------------------------------------------------------------
                    CFOUR Control Parameters 
    -------------------------------------------------------------------
        External           Internal           Value            Units
          Name               Name
    -------------------------------------------------------------------
       ABCDTYPE             IABCDT         STANDARD     [  0]   ***   
       ANHARMONIC           IANHAR         OFF          [  0]   ***   
       ANH_ALGORIT          IANALG         STANDARD     [  0]   ***   
       ANH_DERIVAT          IANDER         SECOND       [  1]   ***   
       ANH_STEPSIZ          ICUBST             50000          x 10-6  
       ANH_SYMMETR          IANHSM         ABELIAN      [  0]   ***   
       AO_LADDERS           IAOLAD         SINGLEPASS   [  1]   ***   
       BASIS                IBASIS         SPECIAL      [  0]   ***   
       BREIT                IBREIT         OFF          [  0]   ***   
       BRUCK_CONV           IBRTOL          10D-  4             ***   
       BRUECKNER            IBRKNR             OFF      [  0]   ***   
       BUFFERSIZE           IBUFFS            600               ***   
       CACHE_RECS           ICHREC             10               ***   
       CALCLEVEL            ICLLVL           CCSD(T)    [ 22]   ***   
       CCORBOPT             ICCORB             OFF      [  0] x 0.01  
       CC_CONV              ICCCNV          10D-  9             ***   
       CC_EXPORDER          ICCEOR              5               ***   
       CC_EXTRAPOL          ICCEXT             DIIS     [  1]   ***   
       CC_MAXCYC            ICCCYC            999              cycles 
       CC_PROGRAM           ICCPRO         VCC          [  0]   ***   
       CHARGE               ICHRGE              1               ***   
       CHOLESKY             ICHOLE         OFF          [  0]   ***   
       CIS_CONV             ICISTL              5               ***   
       COMM_SIZE            IPSIZE            ***               ***   
       CONSTANT             ICONST         OLD          [  1]   ***   
       CONTINUUM            ICONTU         NONE         [  0]   ***   
       CONTRACTION          ICNTYP          GENERAL     [  1]   ***   
       COORDINATES          ICOORD         CARTESIAN    [  1]   ***   
       CPHF_CONVER          ICPHFT          10D- 16             ***   
       CPHF_MAXCYC          ICPHFC             64              cycles 
       CUBIC                ICUBIC         OFF          [  0]   ***   
       CURVILINEAR          ICURVY            OFF       [  0]   ***   
       DBOC                 IDBOC          OFF          [  0]   ***   
       DCT                  IDCT           OFF          [  0]   ***   
       DERIV_LEV            IDRLVL            ZERO      [  0]   ***   
       DIAG_MRCC            IEOMST          10D-  0             ***   
       DIFF_TYPE            IDIFTY         RELAXED      [  0]   ***   
       DIRECT               IDIRCT         OFF          [  0]   ***   
       DROPMO               IDRPMO      NONE         
       ECP                  IECP           OFF          [  0]   ***   
       EIGENVECTOR          IVEC                1               ***   
       EL_ANHARM            IELANH         OFF          [  0]   ***   
       EOMFOLLOW            IEOMSR         ENERGY       [  0]   ***   
       EOM_MRCC             IMRCCE         NEW          [  1]   ***   
       EOM_NONIT            EOMNON         OFF          [  0]   ***   
       EOM_NSING            IEOMSI          10D-  0             ***   
       EOM_NSTATES          IMRCCD         DAVIDSON     [  0]   ***   
       EOM_NTRIP            IEOMTR          10D-  0             ***   
       EOM_ORDER            IEXORD         ENERGY       [  0]   ***   
       ESTATE_CONV          IEXTOL          10D-  5             ***   
       ESTATE_DIAG          IEXDIG         ITERATIVE    [  0]   ***   
       ESTATE_LOCK          IESLOC         ON           [  1]   ***   
       ESTATE_MAXC          IEXMXC             20               ***   
       ESTATE_PROP          IEXPRP         OFF          [  0]   ***   
       EVAL_HESS            IRECAL              0            # of cyc.
       EXCITATION           IEXCIT              0               ***   
       EXCITE               IEXCIT         NONE         [  0]   ***   
       FCGRADNEW            IFCGNW         OFF          [  0]   ***   
       FC_FIELD             IFINFC              0             x 10-6  
       FD_CALTYPE           IFDCAL         GRADONLY     [  0]   ***   
       FD_PROJECT           IFDPRJ         OFF          [  1]   ***   
       FD_STEPSIZE          IDISFD              0            10-4 bohr
       FD_USEGROUP          IFDGRP         FULL         [  0]   ***   
       FILE_RECSIZ          IFLREC              4096           words  
       FINITE_PERT          IFIPER              0             x 10-6  
       FIXGEOM              IFIXGM         OFF          [  0]   ***   
       FOCK                 IFOCK          AO           [  1]   ***   
       FREQ_ALGORI          IVIALG         STANDARD     [  0]   ***   
       FROZEN_CORE          IFROCO         ON           [  1]   ***   
       FROZEN_VIRT          IFROVI         OFF          [  0]   ***   
       GAMMA_ABCD           IGABCD         STORE        [  0]   ***   
       GAMMA_ABCI           IGABCI         STORE        [  0]   ***   
       GENBAS_1             IGNBS1              0               ***   
       GENBAS_2             IGNBS2              0               ***   
       GENBAS_3             IGNBS3              0               ***   
       GENBAS_4             IGNBS4              0               ***   
       GEO_CONV             ICONTL              5              H/bohr 
       GEO_MAXCYC           IOPTCY             50               ***   
       GEO_MAXSTEP          IMXSTP            300            millibohr
       GEO_METHOD           INR            SINGLE_POINT [  5]   ***   
       GIAO                 IGIAO          OFF          [  1]   ***   
       GIMIC                IGIMIC         OFF          [  0]   ***   
       GRID                 IGRID          OFF          [  0]   ***   
       GRID_ALGO            IGALGO         SERIAL       [  0]   ***   
       GUESS                IGUESS            MOREAD    [  0]   ***   
       HBAR                 IHBAR              OFF      [  0]   ***   
       HESS_TYPE            IHESTP         SCF          [  0]   ***   
       HF2_FILE             IHF2Fl         USE          [  1]   ***   
       HFSTABILITY          ISTABL         OFF          [  0]   ***   
       INCORE               INCORE             OFF      [  0]   ***   
       INPUT_MRCC           IMRCC          OFF          [  0]   ***   
       INTEGRALS            INTTYP             VMOL     [  1]   ***   
       JODA_PRINT           IJPRNT              4               ***   
       LINDEP_TOL           ILINDP              8               ***   
       LINEQ_CONV           IZTACN          10D-  7           cycles  
       LINEQ_EXPOR          ILMAXD              5               ***   
       LINEQ_MAXCY          ILMAXC             50               ***   
       LINEQ_TYPE           ILTYPE         DIIS         [  1]   ***   
       LOCK_ORBOCC          ILOCOC             OFF      [  0]   ***   
       MEMORY_SIZE          IMEMSZ         500000000           words  
       MEM_UNIT             IMEMU          GB           [  3]   ***   
       MRCC                 IMRCCC         OFF          [  0]   ***   
       MULTIPLICTY          IMULTP              2               ***   
       NEGEVAL              IDIE             ABORT      [  0]   ***   
       NEWNORM              INEWNO         OFF          [  0]   ***   
       NON-HF               INONHF              ON      [  1]   ***   
       NTOP_TAMP            ITOPT2             15               ***   
       NUC_MODEL            INUCMO         POINT        [  0]   ***   
       OCCUPATION           IOCCU   ESTIMATED BY SCF 
       OPEN-SHELL           IOPEN          SPIN-ORBITAL [  0]   ***   
       ORBITALS             IORBTP         SEMICANONICAL[  1]   ***   
       PARALLEL             IPARAL         ON           [  1]   ***   
       PARA_INT             IPINTS         ON           [  1]   ***   
       PARA_PRINT           IPPRIN              0               ***   
       PERT_ORB             IPTORB         STANDARD     [  0]   ***   
       POINTS               IGRDFD              0               ***   
       PRINT                IPRNT               4               ***   
       PROPS                IPROPS             OFF      [  0]   ***   
       PROP_INTEGR          IINTYP         INTERNAL     [  0]   ***   
       PSI                  IPSI           OFF          [  0]   ***   
       QUARTIC              IQUART         OFF          [  0]   ***   
       RAMAN_INT            IRAMIN         OFF          [  0]   ***   
       RAMAN_ORB            IRAMRE         UNRELAXED    [  0]   ***   
       RDO                  IRDOFM             OFF      [  0]   ***   
       REFERENCE            IREFNC             ROHF     [  2]   ***   
       RELATIVIST           IRELAT         OFF          [  0]   ***   
       RELAX_DENS           IRDENS             OFF      [  0]   ***   
       RESET_FLAGS          IRESET             OFF      [  0]   ***   
       RESTART_CC           ICCRES         OFF          [  0]   ***   
       ROT_EVEC             ROTVEC              0               ***   
       SAVE_INTS            ISVINT              ON      [  1]   ***   
       SCALE_ON             ISTCRT              0               ***   
       SCF_CONV             ISCFCV          10D- 12             ***   
       SCF_DAMPING          IDAMP               0             x 10-3  
       SCF_EXPORDE          IRPPOR              6               ***   
       SCF_EXPSTAR          IRPPLS              5               ***   
       SCF_EXTRAPO          IRPP                ON      [  1]   ***   
       SCF_MAXCYC           ISCFCY            ***              cycles 
       SCF_NOSTOP           ISCFST         OFF          [  0]   ***   
       SCF_PRINT            ISCFPR              0               ***   
       SD_FIELD             IFINSD              0             x 10-6  
       SEQUENCE             ISEQUE         OFF          [  0]   ***   
       SOPERT               IPERSO         OFF          [  0]   ***   
       SPHERICAL            IDFGHI             ON       [  1]   ***   
       SPINORBIT            ISOCAL         OFF          [  0]   ***   
       SPINROTATIO          ISRCON         OFF          [  0]   ***   
       SPIN_FLIP            ISPFLP         OFF          [  0]   ***   
       SPIN_ORBIT           ISPORB         OFF          [  0]   ***   
       SPIN_SCAL            ISCSMP         OFF          [  0]   ***   
       SUBGROUP             ISUBGP         DEFAULT      [  0]   ***   
       SUBGRPAXIS           ISBXYZ         X            [  0]   ***   
       SYMMETRY             ISYM             ON         [  0]   ***   
       SYM_CHECK            ISYMCK         OVERRIDE     [  1]   ***   
       T3_EXTRAPOL          IT3EXT         ON           [  1]   ***   
       TAMP_SUM             IEVERY              5               ***   
       TESTSUITE            ITESTS         OFF          [  0]   ***   
       THERMOCH             ITHERM         OFF          [  0]   ***   
       TOL_CHOLESK          ITOLCH          10D-  4             ***   
       TRANGRAD             IRESRM         OFF          [  0]   ***   
       TRANS_INV            ITRAIN         USE          [  0]   ***   
       TREAT_PERT           ITREAT         SIMULTANEOUS [  0]   ***   
       UIJ_THRESHO          IUIJTH              1               ***   
       UNITS                IUNITS         ANGSTROM     [  0]   ***   
       UNOS                 IUNOS          OFF          [  0]   ***   
       UPDATE_HESS          IHUPDT         ON           [  1]   ***   
       VIBPHASE             ISETPH         STANDARD     [  0]   ***   
       VIBRATION            IVIB              NO        [  0]   ***   
       VIB_ALGORIT          IGEALG         STANDARD     [  0]   ***   
       VNATORB              IVNORB         OFF          [  0]   ***   
       VTRAN                IVTRAN         FULL/PARTIAL [  0]   ***   
       XFIELD               IXEFLD              0             x 10-6  
       XFORM_TOL            IXFTOL          10D- 18             ***   
       YFIELD               IYEFLD              0             x 10-6  
       ZFIELD               IZEFLD              0             x 10-6  
    -------------------------------------------------------------------
  @GETXYZ-I,     8 atoms read from ZMAT.
  1  SI        14    27.97693
  2  SI        14    27.97693
  3  H          1     1.00783
  4  H          1     1.00783
  5  H          1     1.00783
  6  H          1     1.00783
  7  H          1     1.00783
  8  H          1     1.00783
  1  SI        14    27.97693
  2  SI        14    27.97693
  3  H          1     1.00783
  4  H          1     1.00783
  5  H          1     1.00783
  6  H          1     1.00783
  7  H          1     1.00783
  8  H          1     1.00783
   27.9769271000
   27.9769271000
    1.0078250350
    1.0078250350
    1.0078250350
    1.0078250350
    1.0078250350
    1.0078250350
 After translation to center of mass coordinates 
        0.000000000000    0.000000000000   -2.202476259838
        0.000000000000    0.000000000000    2.202476259838
        2.644351012166    0.000000000000    3.180651619278
       -2.644351012166    0.000000000000   -3.180651619278
        1.321863701207    2.289592652441   -3.180651619278
        1.321863701207   -2.289592652441   -3.180651619278
       -1.321863701207   -2.289592652441    3.180651619278
       -1.321863701207    2.289592652441    3.180651619278
  Inertia tensor (amu*bohr**2)
  353.73391    0.00000   -0.00400
    0.00000  353.73949    0.00000
   -0.00400    0.00000   42.27163
    Inertia tensor:
      353.733908039102    0.000000000000   -0.003998012419
        0.000000000000  353.739492471106    0.000000000000
       -0.003998012419    0.000000000000   42.271625893305
    Principal axis orientation for molecular system: 
       -2.202476259657    0.000028271569    0.000000000000
        2.202476259657   -0.000028271569    0.000000000000
        3.180685562607    2.644310184261    0.000000000000
       -3.180685562607   -2.644310184261    0.000000000000
       -3.180634651223    1.321904528785    2.289592652441
       -3.180634651223    1.321904528785   -2.289592652441
        3.180634651223   -1.321904528785   -2.289592652441
        3.180634651223   -1.321904528785    2.289592652441
    Diagonalized inertia tensor:
       42.271625841985    0.000000000000    0.000000000000
        0.000000000000  353.733908090422    0.000000000000
        0.000000000000    0.000000000000  353.739492471106
    Eigenvectors of inertia tensor: 
        0.000012836265    0.999999999918    0.000000000000
        0.000000000000    0.000000000000    1.000000000000
        0.999999999918   -0.000012836265    0.000000000000
 factor:   60.1997200000000     
   Rotational constants (in cm-1): 
          0.1701809419             0.1701836285             1.4241165037
   Rotational constants (in MHz): 
       5101.8970011029          5101.9775445126         42693.9446936883
  @SYMMETRY-I, Handedness of inertial frame: 1.00000
  @SYMMETRY-I, The symmetry group is 1-fold degenerate.
  @SYMMETRY-I, The molecule belongs to an Abelian group.
   Principal axis orientation for molecule:
       -2.202476259657    0.000028271569    0.000000000000
        2.202476259657   -0.000028271569    0.000000000000
        3.180685562607    2.644310184261    0.000000000000
       -3.180685562607   -2.644310184261    0.000000000000
       -3.180634651223    1.321904528785    2.289592652441
       -3.180634651223    1.321904528785   -2.289592652441
        3.180634651223   -1.321904528785   -2.289592652441
        3.180634651223   -1.321904528785    2.289592652441
   Reflection in plane  3 is a valid symmetry operation.
   Rotation about  3 is a valid symmetry operation 
   The molecule possesses an inversion center. 
  Symmetry bits:    4   4   1
********************************************************************************
   The full molecular point group is C2h .
   The largest Abelian subgroup of the full molecular point group is C2h .
   The computational point group is C2h .
********************************************************************************
 ----------------------------------------------------------------
 Z-matrix   Atomic            Coordinates (in bohr)
  Symbol    Number           X              Y              Z
 ----------------------------------------------------------------
     SI       14        -2.20247626     0.00002827     0.00000000
     SI       14         2.20247626    -0.00002827     0.00000000
     H         1         3.18068556     2.64431018     0.00000000
     H         1        -3.18068556    -2.64431018     0.00000000
     H         1        -3.18063465     1.32190453     2.28959265
     H         1        -3.18063465     1.32190453    -2.28959265
     H         1         3.18063465    -1.32190453    -2.28959265
     H         1         3.18063465    -1.32190453     2.28959265
 ----------------------------------------------------------------
   Interatomic distance matrix (Angstroms) 
 
                 SI            SI            H             H             H    
                [ 1]        [ 2]        [ 3]        [ 4]        [ 5]
  SI   [ 1]     0.00000
  SI   [ 2]     2.33100     0.00000
  H    [ 3]     3.17377     1.49200     0.00000
  H    [ 4]     1.49200     3.17377     4.37769     0.00000
  H    [ 5]     1.49171     3.17363     3.64547     2.42344     0.00000
  H    [ 6]     1.49171     3.17363     3.64547     2.42344     2.42320
  H    [ 7]     3.17363     1.49171     2.42344     3.64547     4.37730
  H    [ 8]     3.17363     1.49171     2.42344     3.64547     3.64539
 
                 H             H             H    
                [ 6]        [ 7]        [ 8]
  H    [ 6]     0.00000
  H    [ 7]     3.64539     0.00000
  H    [ 8]     4.37730     2.42320     0.00000
  Inertia tensor (amu*bohr**2)
   42.27163    0.00000    0.00000
    0.00000  353.73391    0.00000
    0.00000    0.00000  353.73949
   Rotational constants (in cm-1): 
          1.4241165037             0.1701836285             0.1701809419
   Rotational constants (in MHz): 
      42693.9446936883          5101.9775445126          5101.8970011029
  @GTFLGS-W, Keyword #UNITS not known and is ignored.
  @GTFLGS-W, Keyword #GEOM not known and is ignored.
  @GTFLGS-W, Keyword #COORD not known and is ignored.
  @GTFLGS-W, Keyword #CC_PROG not known and is ignored.
  @GTFLGS-W, Keyword #DROPMO not known and is ignored.
  @GTFLGS-W, Keyword #CONTRACTION not known and is ignored.
  @GTFLGS-W, Keyword #EXCITE not known and is ignored.
  @GTFLGS-W, Keyword #ESTATE_CONV not known and is ignored.
  @GTFLGS-W, Keyword #ESTATE_SYM not known and is ignored.
  @GTFLGS-W, Keyword #SCF_DAMPING not known and is ignored.
  @GTFLGS-W, Keyword #SYMMETRY not known and is ignored.
  @GTFLGS-W, Keyword #HFSTABILITY not known and is ignored.
  @GTFLGS-W, Keyword #OCCUPATION not known and is ignored.
  There are  10 frozen-core orbitals.
  There are  10 frozen-core orbitals.
  There are  168 basis functions.
 @GEOPT-W, Archive file not created for single-point calculation.
  @CHECKOUT-I, Total execution time (CPU/WALL):        0.23/       0.41 seconds.
--executable xjoda finished with status     0 in        0.44 seconds (walltime).
 --invoking executable--
/project1/nike/cfour_v2.00beta_May2019xnmol_noLABBASIS/bin/xvmol
Running with 1 threads/proc

********************************************************************************
                   INPUT FROM MOL FILE                                          
********************************************************************************
INTGRL        1    0    1    0    0    0    0    0    0
         *** CFOUR Program System (Release V0.1) *** 
TITLE
    3    2 Z  XY      0.10E-08              0    0
   9999.00      3.00
         14.00000000    1    4    1    1    1    1
SI#1  -2.202476259656702   0.000028271569115   0.000000000000000
   14    5
   44773.3580780000       5.591476586800000E-004  0.000000000000000E+000
  0.000000000000000E+000  0.000000000000000E+000  0.000000000000000E+000
   6717.19921040000       4.320604018900000E-003  0.000000000000000E+000
  0.000000000000000E+000  0.000000000000000E+000  0.000000000000000E+000
   1528.89603250000       2.218709646000000E-002  0.000000000000000E+000
  0.000000000000000E+000  0.000000000000000E+000  0.000000000000000E+000
   432.547465850000       8.648924911600001E-002  0.000000000000000E+000
  0.000000000000000E+000  0.000000000000000E+000  0.000000000000000E+000
   140.615052260000       0.249398897160000       0.000000000000000E+000
  0.000000000000000E+000  0.000000000000000E+000  0.000000000000000E+000
   49.8576367240000       0.460171973660000       0.000000000000000E+000
  0.000000000000000E+000  0.000000000000000E+000  0.000000000000000E+000
   18.4349748850000       0.342502365750000       0.000000000000000E+000
  0.000000000000000E+000  0.000000000000000E+000  0.000000000000000E+000
   86.5338861110000       0.000000000000000E+000  2.130006300700000E-002
  0.000000000000000E+000  0.000000000000000E+000  0.000000000000000E+000
   26.6246068460000       0.000000000000000E+000  9.467613931799999E-002
  0.000000000000000E+000  0.000000000000000E+000  0.000000000000000E+000
   4.49530571590000       0.000000000000000E+000 -0.326162648590000     
  0.000000000000000E+000  0.000000000000000E+000  0.000000000000000E+000
   2.10350457100000       0.000000000000000E+000  0.000000000000000E+000
   1.39808038500000       0.000000000000000E+000  0.000000000000000E+000
   1.01060949220000       0.000000000000000E+000  0.000000000000000E+000
  0.638657866990000       0.000000000000000E+000  0.000000000000000E+000
  0.237017514890000       0.000000000000000E+000  0.000000000000000E+000
  0.000000000000000E+000   1.00000000000000       0.000000000000000E+000
  8.570340536200000E-002  0.000000000000000E+000  0.000000000000000E+000
  0.000000000000000E+000  0.000000000000000E+000   1.00000000000000     
    9    5
   394.475036280000       2.628569395900000E-003  0.000000000000000E+000
  0.000000000000000E+000  0.000000000000000E+000  0.000000000000000E+000
   93.1376831040000       2.055625774900000E-002  0.000000000000000E+000
  0.000000000000000E+000  0.000000000000000E+000  0.000000000000000E+000
   29.5196087420000       9.207026280100000E-002  0.000000000000000E+000
  0.000000000000000E+000  0.000000000000000E+000  0.000000000000000E+000
   10.7816637910000       0.255658897390000       0.000000000000000E+000
  0.000000000000000E+000  0.000000000000000E+000  0.000000000000000E+000
   4.16265747780000       0.421117071850000       0.000000000000000E+000
  0.000000000000000E+000  0.000000000000000E+000  0.000000000000000E+000
   1.62479729890000       0.000000000000000E+000  0.344017463180000     
  0.000000000000000E+000  0.000000000000000E+000  0.000000000000000E+000
  0.543066604930000       0.000000000000000E+000  0.000000000000000E+000
   1.00000000000000       0.000000000000000E+000  0.000000000000000E+000
  0.205820739560000       0.000000000000000E+000  0.000000000000000E+000
  0.000000000000000E+000   1.00000000000000       0.000000000000000E+000
  7.005348730600000E-002  0.000000000000000E+000  0.000000000000000E+000
  0.000000000000000E+000  0.000000000000000E+000   1.00000000000000     
    3    3
  0.160000000000000        1.00000000000000       0.000000000000000E+000
  0.000000000000000E+000
   2.30300000000000       0.000000000000000E+000   1.00000000000000     
  0.000000000000000E+000
  0.476000000000000       0.000000000000000E+000  0.000000000000000E+000
   1.00000000000000     
    1    1
  0.336000000000000        1.00000000000000     
          1.00000000    1    3    1    1    1
H #2   3.180685562606844   2.644310184260687   0.000000000000000
    5    3
   34.0613410000000       6.025197800000000E-003  0.000000000000000E+000
  0.000000000000000E+000
   5.12357460000000       4.502109400000000E-002  0.000000000000000E+000
  0.000000000000000E+000
   1.16466260000000       0.201897260000000       0.000000000000000E+000
  0.000000000000000E+000
  0.327230410000000       0.000000000000000E+000   1.00000000000000     
  0.000000000000000E+000
  0.103072410000000       0.000000000000000E+000  0.000000000000000E+000
   1.00000000000000     
    2    2
   1.40700000000000        1.00000000000000       0.000000000000000E+000
  0.388000000000000       0.000000000000000E+000   1.00000000000000     
    1    1
   1.05700000000000        1.00000000000000     
          1.00000000    1    3    1    1    1
H #3  -3.180634651223398   1.321904528785453   2.289592652440932
    5    3
   34.0613410000000       6.025197800000000E-003  0.000000000000000E+000
  0.000000000000000E+000
   5.12357460000000       4.502109400000000E-002  0.000000000000000E+000
  0.000000000000000E+000
   1.16466260000000       0.201897260000000       0.000000000000000E+000
  0.000000000000000E+000
  0.327230410000000       0.000000000000000E+000   1.00000000000000     
  0.000000000000000E+000
  0.103072410000000       0.000000000000000E+000  0.000000000000000E+000
   1.00000000000000     
    2    2
   1.40700000000000        1.00000000000000       0.000000000000000E+000
  0.388000000000000       0.000000000000000E+000   1.00000000000000     
    1    1
   1.05700000000000        1.00000000000000     
FINISH
                                                                                
********************************************************************************

ONE- AND TWO-ELECTRON INTEGRALS OVER SYMMETRY-ADAPTED AOS ARE CALCULATED.


    BASIS FUNCTION NOT NORMALIZED:
    CENTER (AS ORDERED IN MOL FILE): ?
    ANGULAR MOMENTUM TYPE:           S
    OFFSET WITHIN ANGULAR MOMENTUM:  1
    <CHI|CHI>:                       1.0410848989

    BASIS FUNCTION NOT NORMALIZED:
    CENTER (AS ORDERED IN MOL FILE): ?
    ANGULAR MOMENTUM TYPE:           S
    OFFSET WITHIN ANGULAR MOMENTUM:  2
    <CHI|CHI>:                       0.0785770661

    BASIS FUNCTION NOT NORMALIZED:
    CENTER (AS ORDERED IN MOL FILE): ?
    ANGULAR MOMENTUM TYPE:           S
    OFFSET WITHIN ANGULAR MOMENTUM:  3
    <CHI|CHI>:                       3.9806625281

    BASIS FUNCTION NOT NORMALIZED:
    CENTER (AS ORDERED IN MOL FILE): ?
    ANGULAR MOMENTUM TYPE:           P
    OFFSET WITHIN ANGULAR MOMENTUM:  1
    <CHI|CHI>:                       0.4851579318

    BASIS FUNCTION NOT NORMALIZED:
    CENTER (AS ORDERED IN MOL FILE): ?
    ANGULAR MOMENTUM TYPE:           P
    OFFSET WITHIN ANGULAR MOMENTUM:  2
    <CHI|CHI>:                       0.1183480150

    BASIS FUNCTION NOT NORMALIZED:
    CENTER (AS ORDERED IN MOL FILE): ?
    ANGULAR MOMENTUM TYPE:           S
    OFFSET WITHIN ANGULAR MOMENTUM:  1
    <CHI|CHI>:                       0.0560960211

    BASIS FUNCTION NOT NORMALIZED:
    CENTER (AS ORDERED IN MOL FILE): ?
    ANGULAR MOMENTUM TYPE:           S
    OFFSET WITHIN ANGULAR MOMENTUM:  1
    <CHI|CHI>:                       0.0560960211
CARTESIAN GAUSSIANS ARE USED.

3 TYPES OF ATOMS
2 SYMMETRY OPERATIONS

REFLECTION IN THE XY-PLANE
ROTATION ABOUT THE Z-AXIS

INTEGRALS LESS THAN 1e-14 ARE NEGLECTED.

ATOMIC TYPE NUMBER 1:
---------------------

    NUCLEAR CHARGE:                       14
    NUMBER OF SYMMETRY INDEPENDENT ATOMS: 1
    HIGHEST ORBITAL TYPE:                 F

    1 GROUPS OF CGTOS OF S TYPE
    1 GROUPS OF CGTOS OF P TYPE
    1 GROUPS OF CGTOS OF D TYPE
    1 GROUPS OF CGTOS OF F TYPE

    NUCLEAR COORDINATES (IN A.U.) ARE:

    SI#1  -2.202476259656702   0.000028271569115   0.000000000000000

ATOMIC TYPE NUMBER 2:
---------------------

    NUCLEAR CHARGE:                       1
    NUMBER OF SYMMETRY INDEPENDENT ATOMS: 1
    HIGHEST ORBITAL TYPE:                 D

    1 GROUPS OF CGTOS OF S TYPE
    1 GROUPS OF CGTOS OF P TYPE
    1 GROUPS OF CGTOS OF D TYPE

    NUCLEAR COORDINATES (IN A.U.) ARE:

    H #2   3.180685562606844   2.644310184260687   0.000000000000000

ATOMIC TYPE NUMBER 3:
---------------------

    NUCLEAR CHARGE:                       1
    NUMBER OF SYMMETRY INDEPENDENT ATOMS: 1
    HIGHEST ORBITAL TYPE:                 D

    1 GROUPS OF CGTOS OF S TYPE
    1 GROUPS OF CGTOS OF P TYPE
    1 GROUPS OF CGTOS OF D TYPE

    NUCLEAR COORDINATES (IN A.U.) ARE:

    H #3  -3.180634651223398   1.321904528785453   2.289592652440932

INTERNUCLEAR DISTANCES (A):

    FOR ATOM SI#1 (COORDINATES:  -2.20248   0.00003   0.00000)

    SI#1 3 DISTANCE IS   2.33100
    H #2 1 DISTANCE IS   3.17377
    H #2 3 DISTANCE IS   1.49200
    H #3 1 DISTANCE IS   1.49172
    H #3 3 DISTANCE IS   3.17364

    FOR ATOM H #2 (COORDINATES:   3.18069   2.64431   0.00000)

    H #2 3 DISTANCE IS   4.37769
    H #3 1 DISTANCE IS   3.64547
    H #3 3 DISTANCE IS   2.42344

    FOR ATOM H #3 (COORDINATES:  -3.18063   1.32190   2.28959)

    H #3 2 DISTANCE IS   2.42320
    H #3 3 DISTANCE IS   3.64539
    H #3 4 DISTANCE IS   4.37730

GROUP MULTIPLICATION TABLE:

    1 2 3 4
    2 1 4 3
    3 4 1 2
    4 3 2 1

GAUSSIAN BASIS INFORMATION:

ATOM                EXPONENT       COEFFICIENTS

SI#1  1  S   
                  1   44773.358078   1.2021489   0.0000000   0.0000000   0.0000000   0.0000000
                  2    6717.199210   2.2392504   0.0000000   0.0000000   0.0000000   0.0000000
                  3    1528.896033   3.7892299   0.0000000   0.0000000   0.0000000   0.0000000
                  4     432.547466   5.7299981   0.0000000   0.0000000   0.0000000   0.0000000
                  5     140.615052   7.1135339   0.0000000   0.0000000   0.0000000   0.0000000
                  6      49.857637   6.0309531   0.0000000   0.0000000   0.0000000   0.0000000
                  7      18.434975   2.1284454   0.0000000   0.0000000   0.0000000   0.0000000
                  8      86.533886   0.0000000   1.5365006   0.0000000   0.0000000   0.0000000
                  9      26.624607   0.0000000   2.8214030   0.0000000   0.0000000   0.0000000
                 10       4.495306   0.0000000  -2.5601525   0.0000000   0.0000000   0.0000000
                 11       2.103505   0.0000000   0.0000000   0.8723126   0.0000000   0.0000000
                 12       1.010609   0.0000000   0.0000000   0.2299525   0.0000000   0.0000000
                 13       0.237018   0.0000000   0.0000000   0.0000000   0.2421004   0.0000000
                 14       0.085703   0.0000000   0.0000000   0.0000000   0.0000000   0.1128908

SI#1  3  S   
                 15   44773.358078   1.2021489   0.0000000   0.0000000   0.0000000   0.0000000
                 16    6717.199210   2.2392504   0.0000000   0.0000000   0.0000000   0.0000000
                 17    1528.896033   3.7892299   0.0000000   0.0000000   0.0000000   0.0000000
                 18     432.547466   5.7299981   0.0000000   0.0000000   0.0000000   0.0000000
                 19     140.615052   7.1135339   0.0000000   0.0000000   0.0000000   0.0000000
                 20      49.857637   6.0309531   0.0000000   0.0000000   0.0000000   0.0000000
                 21      18.434975   2.1284454   0.0000000   0.0000000   0.0000000   0.0000000
                 22      86.533886   0.0000000   1.5365006   0.0000000   0.0000000   0.0000000
                 23      26.624607   0.0000000   2.8214030   0.0000000   0.0000000   0.0000000
                 24       4.495306   0.0000000  -2.5601525   0.0000000   0.0000000   0.0000000
                 25       2.103505   0.0000000   0.0000000   0.8723126   0.0000000   0.0000000
                 26       1.010609   0.0000000   0.0000000   0.2299525   0.0000000   0.0000000
                 27       0.237018   0.0000000   0.0000000   0.0000000   0.2421004   0.0000000
                 28       0.085703   0.0000000   0.0000000   0.0000000   0.0000000   0.1128908

SI#1  1  X   
                 29     394.475036   9.4567601   0.0000000   0.0000000   0.0000000   0.0000000
                 30      93.137683  12.1716474   0.0000000   0.0000000   0.0000000   0.0000000
                 31      29.519609  12.9645112   0.0000000   0.0000000   0.0000000   0.0000000
                 32      10.781664  10.2215478   0.0000000   0.0000000   0.0000000   0.0000000
                 33       4.162657   5.1240660   0.0000000   0.0000000   0.0000000   0.0000000
                 34       1.624797   0.0000000   2.6148036   0.0000000   0.0000000   0.0000000
                 35       0.543067   0.0000000   0.0000000   0.6645176   0.0000000   0.0000000
                 36       0.205821   0.0000000   0.0000000   0.0000000   0.1976066   0.0000000
                 37       0.070053   0.0000000   0.0000000   0.0000000   0.0000000   0.0513721

SI#1  3  X   
                 38     394.475036   9.4567601   0.0000000   0.0000000   0.0000000   0.0000000
                 39      93.137683  12.1716474   0.0000000   0.0000000   0.0000000   0.0000000
                 40      29.519609  12.9645112   0.0000000   0.0000000   0.0000000   0.0000000
                 41      10.781664  10.2215478   0.0000000   0.0000000   0.0000000   0.0000000
                 42       4.162657   5.1240660   0.0000000   0.0000000   0.0000000   0.0000000
                 43       1.624797   0.0000000   2.6148036   0.0000000   0.0000000   0.0000000
                 44       0.543067   0.0000000   0.0000000   0.6645176   0.0000000   0.0000000
                 45       0.205821   0.0000000   0.0000000   0.0000000   0.1976066   0.0000000
                 46       0.070053   0.0000000   0.0000000   0.0000000   0.0000000   0.0513721

SI#1  1  Y   
                 47     394.475036   9.4567601   0.0000000   0.0000000   0.0000000   0.0000000
                 48      93.137683  12.1716474   0.0000000   0.0000000   0.0000000   0.0000000
                 49      29.519609  12.9645112   0.0000000   0.0000000   0.0000000   0.0000000
                 50      10.781664  10.2215478   0.0000000   0.0000000   0.0000000   0.0000000
                 51       4.162657   5.1240660   0.0000000   0.0000000   0.0000000   0.0000000
                 52       1.624797   0.0000000   2.6148036   0.0000000   0.0000000   0.0000000
                 53       0.543067   0.0000000   0.0000000   0.6645176   0.0000000   0.0000000
                 54       0.205821   0.0000000   0.0000000   0.0000000   0.1976066   0.0000000
                 55       0.070053   0.0000000   0.0000000   0.0000000   0.0000000   0.0513721

SI#1  3  Y   
                 56     394.475036   9.4567601   0.0000000   0.0000000   0.0000000   0.0000000
                 57      93.137683  12.1716474   0.0000000   0.0000000   0.0000000   0.0000000
                 58      29.519609  12.9645112   0.0000000   0.0000000   0.0000000   0.0000000
                 59      10.781664  10.2215478   0.0000000   0.0000000   0.0000000   0.0000000
                 60       4.162657   5.1240660   0.0000000   0.0000000   0.0000000   0.0000000
                 61       1.624797   0.0000000   2.6148036   0.0000000   0.0000000   0.0000000
                 62       0.543067   0.0000000   0.0000000   0.6645176   0.0000000   0.0000000
                 63       0.205821   0.0000000   0.0000000   0.0000000   0.1976066   0.0000000
                 64       0.070053   0.0000000   0.0000000   0.0000000   0.0000000   0.0513721

SI#1  1  Z   
                 65     394.475036   9.4567601   0.0000000   0.0000000   0.0000000   0.0000000
                 66      93.137683  12.1716474   0.0000000   0.0000000   0.0000000   0.0000000
                 67      29.519609  12.9645112   0.0000000   0.0000000   0.0000000   0.0000000
                 68      10.781664  10.2215478   0.0000000   0.0000000   0.0000000   0.0000000
                 69       4.162657   5.1240660   0.0000000   0.0000000   0.0000000   0.0000000
                 70       1.624797   0.0000000   2.6148036   0.0000000   0.0000000   0.0000000
                 71       0.543067   0.0000000   0.0000000   0.6645176   0.0000000   0.0000000
                 72       0.205821   0.0000000   0.0000000   0.0000000   0.1976066   0.0000000
                 73       0.070053   0.0000000   0.0000000   0.0000000   0.0000000   0.0513721

SI#1  3  Z   
                 74     394.475036   9.4567601   0.0000000   0.0000000   0.0000000   0.0000000
                 75      93.137683  12.1716474   0.0000000   0.0000000   0.0000000   0.0000000
                 76      29.519609  12.9645112   0.0000000   0.0000000   0.0000000   0.0000000
                 77      10.781664  10.2215478   0.0000000   0.0000000   0.0000000   0.0000000
                 78       4.162657   5.1240660   0.0000000   0.0000000   0.0000000   0.0000000
                 79       1.624797   0.0000000   2.6148036   0.0000000   0.0000000   0.0000000
                 80       0.543067   0.0000000   0.0000000   0.6645176   0.0000000   0.0000000
                 81       0.205821   0.0000000   0.0000000   0.0000000   0.1976066   0.0000000
                 82       0.070053   0.0000000   0.0000000   0.0000000   0.0000000   0.0513721

SI#1  1  XX  
                 83       0.160000   0.1153932   0.0000000   0.0000000
                 84       2.303000   0.0000000  12.2739535   0.0000000
                 85       0.476000   0.0000000   0.0000000   0.7776466

SI#1  3  XX  
                 86       0.160000   0.1153932   0.0000000   0.0000000
                 87       2.303000   0.0000000  12.2739535   0.0000000
                 88       0.476000   0.0000000   0.0000000   0.7776466

SI#1  1  XY  
                 89       0.160000   0.1153932   0.0000000   0.0000000
                 90       2.303000   0.0000000  12.2739535   0.0000000
                 91       0.476000   0.0000000   0.0000000   0.7776466

SI#1  3  XY  
                 92       0.160000   0.1153932   0.0000000   0.0000000
                 93       2.303000   0.0000000  12.2739535   0.0000000
                 94       0.476000   0.0000000   0.0000000   0.7776466

SI#1  1  XZ  
                 95       0.160000   0.1153932   0.0000000   0.0000000
                 96       2.303000   0.0000000  12.2739535   0.0000000
                 97       0.476000   0.0000000   0.0000000   0.7776466

SI#1  3  XZ  
                 98       0.160000   0.1153932   0.0000000   0.0000000
                 99       2.303000   0.0000000  12.2739535   0.0000000
                100       0.476000   0.0000000   0.0000000   0.7776466

SI#1  1  YY  
                101       0.160000   0.1153932   0.0000000   0.0000000
                102       2.303000   0.0000000  12.2739535   0.0000000
                103       0.476000   0.0000000   0.0000000   0.7776466

SI#1  3  YY  
                104       0.160000   0.1153932   0.0000000   0.0000000
                105       2.303000   0.0000000  12.2739535   0.0000000
                106       0.476000   0.0000000   0.0000000   0.7776466

SI#1  1  YZ  
                107       0.160000   0.1153932   0.0000000   0.0000000
                108       2.303000   0.0000000  12.2739535   0.0000000
                109       0.476000   0.0000000   0.0000000   0.7776466

SI#1  3  YZ  
                110       0.160000   0.1153932   0.0000000   0.0000000
                111       2.303000   0.0000000  12.2739535   0.0000000
                112       0.476000   0.0000000   0.0000000   0.7776466

SI#1  1  ZZ  
                113       0.160000   0.1153932   0.0000000   0.0000000
                114       2.303000   0.0000000  12.2739535   0.0000000
                115       0.476000   0.0000000   0.0000000   0.7776466

SI#1  3  ZZ  
                116       0.160000   0.1153932   0.0000000   0.0000000
                117       2.303000   0.0000000  12.2739535   0.0000000
                118       0.476000   0.0000000   0.0000000   0.7776466

SI#1  1  F300
                119       0.336000   0.4900760

SI#1  3  F300
                120       0.336000   0.4900760

SI#1  1  F210
                121       0.336000   0.4900760

SI#1  3  F210
                122       0.336000   0.4900760

SI#1  1  F201
                123       0.336000   0.4900760

SI#1  3  F201
                124       0.336000   0.4900760

SI#1  1  F120
                125       0.336000   0.4900760

SI#1  3  F120
                126       0.336000   0.4900760

SI#1  1  F111
                127       0.336000   0.4900760

SI#1  3  F111
                128       0.336000   0.4900760

SI#1  1  F102
                129       0.336000   0.4900760

SI#1  3  F102
                130       0.336000   0.4900760

SI#1  1  F030
                131       0.336000   0.4900760

SI#1  3  F030
                132       0.336000   0.4900760

SI#1  1  F021
                133       0.336000   0.4900760

SI#1  3  F021
                134       0.336000   0.4900760

SI#1  1  F012
                135       0.336000   0.4900760

SI#1  3  F012
                136       0.336000   0.4900760

SI#1  1  F003
                137       0.336000   0.4900760

SI#1  3  F003
                138       0.336000   0.4900760

H #2  1  S   
                139      34.061341   0.2556299   0.0000000   0.0000000
                140       5.123575   0.4613600   0.0000000   0.0000000
                141       1.164663   0.6811215   0.0000000   0.0000000
                142       0.327230   0.0000000   0.3083545   0.0000000
                143       0.103072   0.0000000   0.0000000   0.1296483

H #2  3  S   
                144      34.061341   0.2556299   0.0000000   0.0000000
                145       5.123575   0.4613600   0.0000000   0.0000000
                146       1.164663   0.6811215   0.0000000   0.0000000
                147       0.327230   0.0000000   0.3083545   0.0000000
                148       0.103072   0.0000000   0.0000000   0.1296483

H #2  1  X   
                149       1.407000   2.1842770   0.0000000
                150       0.388000   0.0000000   0.4364955

H #2  3  X   
                151       1.407000   2.1842770   0.0000000
                152       0.388000   0.0000000   0.4364955

H #2  1  Y   
                153       1.407000   2.1842770   0.0000000
                154       0.388000   0.0000000   0.4364955

H #2  3  Y   
                155       1.407000   2.1842770   0.0000000
                156       0.388000   0.0000000   0.4364955

H #2  1  Z   
                157       1.407000   2.1842770   0.0000000
                158       0.388000   0.0000000   0.4364955

H #2  3  Z   
                159       1.407000   2.1842770   0.0000000
                160       0.388000   0.0000000   0.4364955

H #2  1  XX  
                161       1.057000   3.1412414

H #2  3  XX  
                162       1.057000   3.1412414

H #2  1  XY  
                163       1.057000   3.1412414

H #2  3  XY  
                164       1.057000   3.1412414

H #2  1  XZ  
                165       1.057000   3.1412414

H #2  3  XZ  
                166       1.057000   3.1412414

H #2  1  YY  
                167       1.057000   3.1412414

H #2  3  YY  
                168       1.057000   3.1412414

H #2  1  YZ  
                169       1.057000   3.1412414

H #2  3  YZ  
                170       1.057000   3.1412414

H #2  1  ZZ  
                171       1.057000   3.1412414

H #2  3  ZZ  
                172       1.057000   3.1412414

H #3  1  S   
                173      34.061341   0.2556299   0.0000000   0.0000000
                174       5.123575   0.4613600   0.0000000   0.0000000
                175       1.164663   0.6811215   0.0000000   0.0000000
                176       0.327230   0.0000000   0.3083545   0.0000000
                177       0.103072   0.0000000   0.0000000   0.1296483

H #3  2  S   
                178      34.061341   0.2556299   0.0000000   0.0000000
                179       5.123575   0.4613600   0.0000000   0.0000000
                180       1.164663   0.6811215   0.0000000   0.0000000
                181       0.327230   0.0000000   0.3083545   0.0000000
                182       0.103072   0.0000000   0.0000000   0.1296483

H #3  3  S   
                183      34.061341   0.2556299   0.0000000   0.0000000
                184       5.123575   0.4613600   0.0000000   0.0000000
                185       1.164663   0.6811215   0.0000000   0.0000000
                186       0.327230   0.0000000   0.3083545   0.0000000
                187       0.103072   0.0000000   0.0000000   0.1296483

H #3  4  S   
                188      34.061341   0.2556299   0.0000000   0.0000000
                189       5.123575   0.4613600   0.0000000   0.0000000
                190       1.164663   0.6811215   0.0000000   0.0000000
                191       0.327230   0.0000000   0.3083545   0.0000000
                192       0.103072   0.0000000   0.0000000   0.1296483

H #3  1  X   
                193       1.407000   2.1842770   0.0000000
                194       0.388000   0.0000000   0.4364955

H #3  2  X   
                195       1.407000   2.1842770   0.0000000
                196       0.388000   0.0000000   0.4364955

H #3  3  X   
                197       1.407000   2.1842770   0.0000000
                198       0.388000   0.0000000   0.4364955

H #3  4  X   
                199       1.407000   2.1842770   0.0000000
                200       0.388000   0.0000000   0.4364955

H #3  1  Y   
                201       1.407000   2.1842770   0.0000000
                202       0.388000   0.0000000   0.4364955

H #3  2  Y   
                203       1.407000   2.1842770   0.0000000
                204       0.388000   0.0000000   0.4364955

H #3  3  Y   
                205       1.407000   2.1842770   0.0000000
                206       0.388000   0.0000000   0.4364955

H #3  4  Y   
                207       1.407000   2.1842770   0.0000000
                208       0.388000   0.0000000   0.4364955

H #3  1  Z   
                209       1.407000   2.1842770   0.0000000
                210       0.388000   0.0000000   0.4364955

H #3  2  Z   
                211       1.407000   2.1842770   0.0000000
                212       0.388000   0.0000000   0.4364955

H #3  3  Z   
                213       1.407000   2.1842770   0.0000000
                214       0.388000   0.0000000   0.4364955

H #3  4  Z   
                215       1.407000   2.1842770   0.0000000
                216       0.388000   0.0000000   0.4364955

H #3  1  XX  
                217       1.057000   3.1412414

H #3  2  XX  
                218       1.057000   3.1412414

H #3  3  XX  
                219       1.057000   3.1412414

H #3  4  XX  
                220       1.057000   3.1412414

H #3  1  XY  
                221       1.057000   3.1412414

H #3  2  XY  
                222       1.057000   3.1412414

H #3  3  XY  
                223       1.057000   3.1412414

H #3  4  XY  
                224       1.057000   3.1412414

H #3  1  XZ  
                225       1.057000   3.1412414

H #3  2  XZ  
                226       1.057000   3.1412414

H #3  3  XZ  
                227       1.057000   3.1412414

H #3  4  XZ  
                228       1.057000   3.1412414

H #3  1  YY  
                229       1.057000   3.1412414

H #3  2  YY  
                230       1.057000   3.1412414

H #3  3  YY  
                231       1.057000   3.1412414

H #3  4  YY  
                232       1.057000   3.1412414

H #3  1  YZ  
                233       1.057000   3.1412414

H #3  2  YZ  
                234       1.057000   3.1412414

H #3  3  YZ  
                235       1.057000   3.1412414

H #3  4  YZ  
                236       1.057000   3.1412414

H #3  1  ZZ  
                237       1.057000   3.1412414

H #3  2  ZZ  
                238       1.057000   3.1412414

H #3  3  ZZ  
                239       1.057000   3.1412414

H #3  4  ZZ  
                240       1.057000   3.1412414

SYMMETRY TRANSFORMATION INTO 168 SYMMETRY-ADAPTED BASIS FUNCTIONS

    IRREDUCIBLE REPRESENTATION NUMBER 1

    1    1 SI#1 S      1   1.0   2   1.0
    2    2 SI#1 S      3   1.0   4   1.0
    3    3 SI#1 S      5   1.0   6   1.0
    4    4 SI#1 S      7   1.0   8   1.0
    5    5 SI#1 S      9   1.0  10   1.0
    6    6 SI#1 X     11   1.0  12  -1.0
    7    7 SI#1 X     13   1.0  14  -1.0
    8    8 SI#1 X     15   1.0  16  -1.0
    9    9 SI#1 X     17   1.0  18  -1.0
   10   10 SI#1 X     19   1.0  20  -1.0
   11   11 SI#1 Y     21   1.0  22  -1.0
   12   12 SI#1 Y     23   1.0  24  -1.0
   13   13 SI#1 Y     25   1.0  26  -1.0
   14   14 SI#1 Y     27   1.0  28  -1.0
   15   15 SI#1 Y     29   1.0  30  -1.0
   16   16 SI#1 XX    41  -1.0  42  -1.0  59  -1.0  60  -1.0  71   2.0  72   2.0
   17   17 SI#1 XX    43  -1.0  44  -1.0  61  -1.0  62  -1.0  73   2.0  74   2.0
   18   18 SI#1 XX    45  -1.0  46  -1.0  63  -1.0  64  -1.0  75   2.0  76   2.0
   19   19 SI#1 XY    47   1.0  48   1.0
   20   20 SI#1 XY    49   1.0  50   1.0
   21   21 SI#1 XY    51   1.0  52   1.0
   22   22 SI#1 YY    41   1.0  42   1.0  59  -1.0  60  -1.0
   23   23 SI#1 YY    43   1.0  44   1.0  61  -1.0  62  -1.0
   24   24 SI#1 YY    45   1.0  46   1.0  63  -1.0  64  -1.0
   25   25 SI#1 ZZ    77  -1.0  78   1.0  83  -1.0  84   1.0  87   4.0  88  -4.0
   26   26 SI#1 ZZ    79  -1.0  80   1.0  89  -1.0  90   1.0  93   4.0  94  -4.0
   27   27 SI#1 ZZ    77   1.0  78  -1.0  83  -3.0  84   3.0
   28   28 SI#1 F300  79   3.0  80  -3.0  89  -1.0  90   1.0
   29   29 SI#1 F210  97   1.0  98   1.0
   30   30 SI#1 F120  99   1.0 100   1.0
   31   31 SI#1 F102 101   1.0 102   1.0
   32   32 SI#1 F030 103   1.0 104  -1.0
   33   33 SI#1 F012 105   1.0 106  -1.0
   34   34 H #2 S    107   1.0 108  -1.0
   35   35 H #2 S    109   1.0 110  -1.0
   36   36 H #2 S    115  -1.0 116  -1.0 121  -1.0 122  -1.0 125   2.0 126   2.0
   37   37 H #2 X    117   1.0 118   1.0
   38   38 H #2 X    115   1.0 116   1.0 121  -1.0 122  -1.0
   39   39 H #2 Y    127   1.0 128   1.0 129   1.0 130   1.0
   40   40 H #2 Y    131   1.0 132   1.0 133   1.0 134   1.0
   41   41 H #2 XX   135   1.0 136   1.0 137   1.0 138   1.0
   42   42 H #2 XY   139   1.0 140   1.0 141  -1.0 142  -1.0
   43   43 H #2 YY   143   1.0 144   1.0 145  -1.0 146  -1.0
   44   44 H #2 ZZ   147   1.0 148   1.0 149  -1.0 150  -1.0
   45   45 H #3 S    151   1.0 152   1.0 153  -1.0 154  -1.0
   46   46 H #3 S    155   1.0 156  -1.0 157   1.0 158  -1.0
   47   47 H #3 S    159   1.0 160  -1.0 161   1.0 162  -1.0
   48   48 H #3 X    163  -1.0 164  -1.0 165  -1.0 166  -1.0 175  -1.0 176  -1.0 177  -1.0 178  -1.0 183   2.0 184   2.0 185   2.0 186   2.0
   49   49 H #3 X    167   1.0 168   1.0 169   1.0 170   1.0
   50   50 H #3 Y    171   1.0 172  -1.0 173  -1.0 174   1.0
   51   51 H #3 Y    163   1.0 164   1.0 165   1.0 166   1.0 175  -1.0 176  -1.0 177  -1.0 178  -1.0
   52   52 H #3 Z    179   1.0 180  -1.0 181  -1.0 182   1.0
   53   53 H #3 Z     31   1.0  32   1.0
   54   54 H #3 XX    33   1.0  34   1.0
   55   55 H #3 XY    35   1.0  36   1.0
   56   56 H #3 XZ    37   1.0  38   1.0
   57   57 H #3 YY    39   1.0  40   1.0
   58   58 H #3 YZ    53   1.0  54  -1.0
   59   59 H #3 ZZ    55   1.0  56  -1.0

    IRREDUCIBLE REPRESENTATION NUMBER 2

   60    1 SI#1 Z     57   1.0  58  -1.0
   61    2 SI#1 Z     65   1.0  66  -1.0
   62    3 SI#1 Z     67   1.0  68  -1.0
   63    4 SI#1 Z     69   1.0  70  -1.0
   64    5 SI#1 Z     81  -3.0  82  -3.0  91  -3.0  92  -3.0  95   2.0  96   2.0
   65    6 SI#1 XZ    85   1.0  86   1.0
   66    7 SI#1 XZ    81   1.0  82   1.0  91  -1.0  92  -1.0
   67    8 SI#1 XZ   111   1.0 112   1.0
   68    9 SI#1 YZ   113   1.0 114   1.0
   69   10 SI#1 YZ   119   1.0 120  -1.0
   70   11 SI#1 YZ   123   1.0 124  -1.0
   71   12 SI#1 F201 127   1.0 128  -1.0 129   1.0 130  -1.0
   72   13 SI#1 F111 131   1.0 132  -1.0 133   1.0 134  -1.0
   73   14 SI#1 F021 135   1.0 136  -1.0 137   1.0 138  -1.0
   74   15 SI#1 F003 139   1.0 140  -1.0 141  -1.0 142   1.0
   75   16 H #2 Z    143   1.0 144  -1.0 145  -1.0 146   1.0
   76   17 H #2 Z    147   1.0 148  -1.0 149  -1.0 150   1.0
   77   18 H #2 XZ   151   1.0 152  -1.0 153  -1.0 154   1.0
   78   19 H #2 YZ   155   1.0 156   1.0 157   1.0 158   1.0
   79   20 H #3 S    159   1.0 160   1.0 161   1.0 162   1.0
   80   21 H #3 S    163  -1.0 164   1.0 165  -1.0 166   1.0 175  -1.0 176   1.0 177  -1.0 178   1.0 183   2.0 184  -2.0 185   2.0 186  -2.0
   81   22 H #3 S    167   1.0 168  -1.0 169   1.0 170  -1.0
   82   23 H #3 X    171   1.0 172   1.0 173  -1.0 174  -1.0
   83   24 H #3 X    163   1.0 164  -1.0 165   1.0 166  -1.0 175  -1.0 176   1.0 177  -1.0 178   1.0
   84   25 H #3 Y    179   1.0 180   1.0 181  -1.0 182  -1.0
   85   26 H #3 Y      1   1.0   2  -1.0
   86   27 H #3 Z      3   1.0   4  -1.0
   87   28 H #3 Z      5   1.0   6  -1.0
   88   29 H #3 XX     7   1.0   8  -1.0
   89   30 H #3 XY     9   1.0  10  -1.0
   90   31 H #3 XZ    11   1.0  12   1.0
   91   32 H #3 YY    13   1.0  14   1.0
   92   33 H #3 YZ    15   1.0  16   1.0
   93   34 H #3 ZZ    17   1.0  18   1.0

    IRREDUCIBLE REPRESENTATION NUMBER 3

   94    1 SI#1 S     19   1.0  20   1.0
   95    2 SI#1 S     21   1.0  22   1.0
   96    3 SI#1 S     23   1.0  24   1.0
   97    4 SI#1 S     25   1.0  26   1.0
   98    5 SI#1 S     27   1.0  28   1.0
   99    6 SI#1 X     29   1.0  30   1.0
  100    7 SI#1 X     41  -1.0  42   1.0  59  -1.0  60   1.0  71   2.0  72  -2.0
  101    8 SI#1 X     43  -1.0  44   1.0  61  -1.0  62   1.0  73   2.0  74  -2.0
  102    9 SI#1 X     45  -1.0  46   1.0  63  -1.0  64   1.0  75   2.0  76  -2.0
  103   10 SI#1 X     47   1.0  48  -1.0
  104   11 SI#1 Y     49   1.0  50  -1.0
  105   12 SI#1 Y     51   1.0  52  -1.0
  106   13 SI#1 Y     41   1.0  42  -1.0  59  -1.0  60   1.0
  107   14 SI#1 Y     43   1.0  44  -1.0  61  -1.0  62   1.0
  108   15 SI#1 Y     45   1.0  46  -1.0  63  -1.0  64   1.0
  109   16 SI#1 XX    77  -1.0  78  -1.0  83  -1.0  84  -1.0  87   4.0  88   4.0
  110   17 SI#1 XX    79  -1.0  80  -1.0  89  -1.0  90  -1.0  93   4.0  94   4.0
  111   18 SI#1 XX    77   1.0  78   1.0  83  -3.0  84  -3.0
  112   19 SI#1 XY    79   3.0  80   3.0  89  -1.0  90  -1.0
  113   20 SI#1 XY    97   1.0  98  -1.0
  114   21 SI#1 XY    99   1.0 100  -1.0
  115   22 SI#1 YY   101   1.0 102  -1.0
  116   23 SI#1 YY   103   1.0 104   1.0
  117   24 SI#1 YY   105   1.0 106   1.0
  118   25 SI#1 ZZ   107   1.0 108   1.0
  119   26 SI#1 ZZ   109   1.0 110   1.0
  120   27 SI#1 ZZ   115  -1.0 116   1.0 121  -1.0 122   1.0 125   2.0 126  -2.0
  121   28 SI#1 F300 117   1.0 118  -1.0
  122   29 SI#1 F210 115   1.0 116  -1.0 121  -1.0 122   1.0
  123   30 SI#1 F120 127   1.0 128   1.0 129  -1.0 130  -1.0
  124   31 SI#1 F102 131   1.0 132   1.0 133  -1.0 134  -1.0
  125   32 SI#1 F030 135   1.0 136   1.0 137  -1.0 138  -1.0
  126   33 SI#1 F012 139   1.0 140   1.0 141   1.0 142   1.0
  127   34 H #2 S    143   1.0 144   1.0 145   1.0 146   1.0
  128   35 H #2 S    147   1.0 148   1.0 149   1.0 150   1.0
  129   36 H #2 S    151   1.0 152   1.0 153   1.0 154   1.0
  130   37 H #2 X    155   1.0 156  -1.0 157  -1.0 158   1.0
  131   38 H #2 X    159   1.0 160  -1.0 161  -1.0 162   1.0
  132   39 H #2 Y    163  -1.0 164  -1.0 165   1.0 166   1.0 175  -1.0 176  -1.0 177   1.0 178   1.0 183   2.0 184   2.0 185  -2.0 186  -2.0
  133   40 H #2 Y    167   1.0 168   1.0 169  -1.0 170  -1.0
  134   41 H #2 XX   171   1.0 172  -1.0 173   1.0 174  -1.0
  135   42 H #2 XY   163   1.0 164   1.0 165  -1.0 166  -1.0 175  -1.0 176  -1.0 177   1.0 178   1.0
  136   43 H #2 YY   179   1.0 180  -1.0 181   1.0 182  -1.0
  137   44 H #2 ZZ    31   1.0  32  -1.0
  138   45 H #3 S     33   1.0  34  -1.0
  139   46 H #3 S     35   1.0  36  -1.0
  140   47 H #3 S     37   1.0  38  -1.0
  141   48 H #3 X     39   1.0  40  -1.0
  142   49 H #3 X     53   1.0  54   1.0
  143   50 H #3 Y     55   1.0  56   1.0
  144   51 H #3 Y     57   1.0  58   1.0
  145   52 H #3 Z     65   1.0  66   1.0
  146   53 H #3 Z     67   1.0  68   1.0
  147   54 H #3 XX    69   1.0  70   1.0
  148   55 H #3 XY    81  -3.0  82   3.0  91  -3.0  92   3.0  95   2.0  96  -2.0
  149   56 H #3 XZ    85   1.0  86  -1.0
  150   57 H #3 YY    81   1.0  82  -1.0  91  -1.0  92   1.0
  151   58 H #3 YZ   111   1.0 112  -1.0
  152   59 H #3 ZZ   113   1.0 114  -1.0

    IRREDUCIBLE REPRESENTATION NUMBER 4

  153    1 SI#1 Z    119   1.0 120   1.0
  154    2 SI#1 Z    123   1.0 124   1.0
  155    3 SI#1 Z    127   1.0 128  -1.0 129  -1.0 130   1.0
  156    4 SI#1 Z    131   1.0 132  -1.0 133  -1.0 134   1.0
  157    5 SI#1 Z    135   1.0 136  -1.0 137  -1.0 138   1.0
  158    6 SI#1 XZ   139   1.0 140  -1.0 141   1.0 142  -1.0
  159    7 SI#1 XZ   143   1.0 144  -1.0 145   1.0 146  -1.0
  160    8 SI#1 XZ   147   1.0 148  -1.0 149   1.0 150  -1.0
  161    9 SI#1 YZ   151   1.0 152  -1.0 153   1.0 154  -1.0
  162   10 SI#1 YZ   155   1.0 156   1.0 157  -1.0 158  -1.0
  163   11 SI#1 YZ   159   1.0 160   1.0 161  -1.0 162  -1.0
  164   12 SI#1 F201 163  -1.0 164   1.0 165   1.0 166  -1.0 175  -1.0 176   1.0 177   1.0 178  -1.0 183   2.0 184  -2.0 185  -2.0 186   2.0
  165   13 SI#1 F111 167   1.0 168  -1.0 169  -1.0 170   1.0
  166   14 SI#1 F021 171   1.0 172   1.0 173   1.0 174   1.0
  167   15 SI#1 F003 163   1.0 164  -1.0 165  -1.0 166   1.0 175  -1.0 176   1.0 177   1.0 178  -1.0
  168   16 H #2 Z    179   1.0 180   1.0 181   1.0 182   1.0
  169   17 H #2 Z   
  170   18 H #2 XZ  
  171   19 H #2 YZ  
  172   20 H #3 S   
  173   21 H #3 S   
  174   22 H #3 S   
  175   23 H #3 X   
  176   24 H #3 X   
  177   25 H #3 Y   
  178   26 H #3 Y   
  179   27 H #3 Z   
  180   28 H #3 Z   
  181   29 H #3 XX  
  182   30 H #3 XY  
  183   31 H #3 XZ  
  184   32 H #3 YY  
  185   33 H #3 YZ  
  186   34 H #3 ZZ  

NUCLEAR REPULSION ENERGY:   90.8419049653 A.U.

One-electron integrals took 0.039990 seconds

  @TWOEL-I,    2179574 INTEGRALS OF SYMMETRY TYPE  I I I I
  @TWOEL-I,    9723054 INTEGRALS OF SYMMETRY TYPE  I J I J
  @TWOEL-I,    5088004 INTEGRALS OF SYMMETRY TYPE  I I J J
  @TWOEL-I,    8306658 INTEGRALS OF SYMMETRY TYPE  I J K L
  @TWOEL-I, TOTAL NUMBER OF 2-E INTEGRALS   25297290

Two-electron integrals took 16.187892 seconds

Nuclear repulsion energy: 90.841904965259
--executable xvmol finished with status     0 in       21.18 seconds (walltime).
 --invoking executable--
/project1/nike/cfour_v2.00beta_May2019xnmol_noLABBASIS/bin/xvmol2ja
--executable xvmol2ja finished with status     0 in        0.01 seconds (walltime).
 --invoking executable--
/project1/nike/cfour_v2.00beta_May2019xnmol_noLABBASIS/bin/xvscf
  There are  168 functions in the AO basis.

  There are 4 irreducible representations.

       Irrep        # of functions
         1                 52
         2                 32
         3                 52
         4                 32


  Parameters for SCF calculation: 
        SCF reference function: ROHF  
  Maximum number of iterations: ****
     Full symmetry point group: C2h 
     Computational point group: C2h 
        Initial density matrix: CORE                   
     SCF convergence tolerance: 10**(-12)
  DIIS convergence acceleration:  ON
          Latest start for DIIS:   5
                     DIIS order:   6

  Memory information:    1213772 words required.
  Fock matrices are constructed from AO integral file.
 @GETMEM-I,  Allocated       9 MB of main memory.
  Initialization and symmetry analysis required      0.002 seconds.

  @INITGES-I, Occupancies from core Hamiltonian:

          Alpha population by irrep:   6    2    6    3
           Beta population by irrep:   6    2    6    2


 total no. of electrons in initial guess :  0.000000000000000E+000
 total no. of electrons in initial guess :  0.000000000000000E+000
  --------------------------------------------------------------------
  Iteration         Total Energy            Largest Density Difference
  --------------------------------------------------------------------
       0            90.841904965258962              0.0000000000D+00
   current occupation vector 
     6  2  6  3
     6  2  6  2
  processed                2179574  ao basis integrals from 
                  3633  buffers.
  processed                5088004  ao basis integrals from 
                  8481  buffers.
  processed                9723054  ao basis integrals from 
                 16206  buffers.
       1          -499.956987006251836              0.7966934547D+00
   current occupation vector 
     6  2  6  3
     6  2  6  2
  processed                2179574  ao basis integrals from 
                  3633  buffers.
  processed                5088004  ao basis integrals from 
                  8481  buffers.
  processed                9723054  ao basis integrals from 
                 16206  buffers.
       2          -458.040438219040368              0.4167910619D+02
   current occupation vector 
     6  2  7  2
     6  2  6  2
  processed                2179574  ao basis integrals from 
                  3633  buffers.
  processed                5088004  ao basis integrals from 
                  8481  buffers.
  processed                9723054  ao basis integrals from 
                 16206  buffers.
       3          -536.607830596242820              0.4173835865D+02
   current occupation vector 
     7  2  6  2
     6  2  6  2
  processed                2179574  ao basis integrals from 
                  3633  buffers.
  processed                5088004  ao basis integrals from 
                  8481  buffers.
  processed                9723054  ao basis integrals from 
                 16206  buffers.
       4          -539.179837460105773              0.1685629358D+02
   current occupation vector 
     6  2  7  2
     6  2  6  2
 
 sum over diagonal and offdiagdiagonal of C(T)*S*C for irrep
                     1
  4.825029265020930E-013 -9.678435724145413E-014
 reorthoganalization of MOs is carried out
 sum over diagonal and offdiagdiagonal of C(T)*S*C for irrep
                     1
 -2.009503674571533E-014  6.599743918566773E-015
 
 sum over diagonal and offdiagdiagonal of C(T)*S*C for irrep
                     2
  2.265965193259944E-013 -3.402432754485464E-014
 reorthoganalization of MOs is carried out
 sum over diagonal and offdiagdiagonal of C(T)*S*C for irrep
                     2
 -3.330669073875470E-016  1.267366779285437E-014
 
 sum over diagonal and offdiagdiagonal of C(T)*S*C for irrep
                     3
  1.869615573468764E-013 -3.774095562500623E-014
 reorthoganalization of MOs is carried out
 sum over diagonal and offdiagdiagonal of C(T)*S*C for irrep
                     3
 -4.463096558993129E-014  7.813658611916450E-014
 
 sum over diagonal and offdiagdiagonal of C(T)*S*C for irrep
                     4
  1.665334536937735E-014 -2.267309671716462E-014
 reorthoganalization of MOs is carried out
 sum over diagonal and offdiagdiagonal of C(T)*S*C for irrep
                     4
 -6.328271240363392E-015 -1.112171200403841E-015
  processed                2179574  ao basis integrals from 
                  3633  buffers.
  processed                5088004  ao basis integrals from 
                  8481  buffers.
  processed                9723054  ao basis integrals from 
                 16206  buffers.
       5          -561.931775213295850              0.1685882652D+02
   current occupation vector 
     7  2  6  2
     6  2  6  2
  processed                2179574  ao basis integrals from 
                  3633  buffers.
  processed                5088004  ao basis integrals from 
                  8481  buffers.
  processed                9723054  ao basis integrals from 
                 16206  buffers.
       6          -579.358829420009215              0.1022228490D+01
   current occupation vector 
     7  2  6  2
     6  2  6  2
  processed                2179574  ao basis integrals from 
                  3633  buffers.
  processed                5088004  ao basis integrals from 
                  8481  buffers.
  processed                9723054  ao basis integrals from 
                 16206  buffers.
       7          -580.635618631227999              0.3590631602D+00
   current occupation vector 
     7  2  6  2
     6  2  6  2
  processed                2179574  ao basis integrals from 
                  3633  buffers.
  processed                5088004  ao basis integrals from 
                  8481  buffers.
  processed                9723054  ao basis integrals from 
                 16206  buffers.
       8          -580.992960242638787              0.1400448817D+00
   current occupation vector 
     7  2  6  2
     6  2  6  2
  processed                2179574  ao basis integrals from 
                  3633  buffers.
  processed                5088004  ao basis integrals from 
                  8481  buffers.
  processed                9723054  ao basis integrals from 
                 16206  buffers.
       9          -581.001117985962537              0.2074353298D-01
   current occupation vector 
     7  2  6  2
     6  2  6  2
 
 sum over diagonal and offdiagdiagonal of C(T)*S*C for irrep
                     1
  6.772360450213455E-015  8.082860124134745E-014
 reorthoganalization of MOs is carried out
 sum over diagonal and offdiagdiagonal of C(T)*S*C for irrep
                     1
 -1.831867990631508E-014 -5.829615486454383E-014
 
 sum over diagonal and offdiagdiagonal of C(T)*S*C for irrep
                     2
  1.758593271006248E-013  3.627344835928703E-014
 reorthoganalization of MOs is carried out
 sum over diagonal and offdiagdiagonal of C(T)*S*C for irrep
                     2
  2.153832667772804E-014 -1.842272784536903E-015
 
 sum over diagonal and offdiagdiagonal of C(T)*S*C for irrep
                     3
 -4.396483177515620E-014  1.689686163489052E-014
 reorthoganalization of MOs is carried out
 sum over diagonal and offdiagdiagonal of C(T)*S*C for irrep
                     3
 -1.620925615952729E-014 -8.174350934865595E-016
 
 sum over diagonal and offdiagdiagonal of C(T)*S*C for irrep
                     4
  1.223465773136923E-013  4.411352832798299E-014
 reorthoganalization of MOs is carried out
 sum over diagonal and offdiagdiagonal of C(T)*S*C for irrep
                     4
  3.885780586188048E-015  1.031590305017677E-014
  processed                2179574  ao basis integrals from 
                  3633  buffers.
  processed                5088004  ao basis integrals from 
                  8481  buffers.
  processed                9723054  ao basis integrals from 
                 16206  buffers.
      10          -581.001407529243352              0.3023795659D-02
   current occupation vector 
     7  2  6  2
     6  2  6  2
  processed                2179574  ao basis integrals from 
                  3633  buffers.
  processed                5088004  ao basis integrals from 
                  8481  buffers.
  processed                9723054  ao basis integrals from 
                 16206  buffers.
      11          -581.001428067923030              0.5683409025D-03
   current occupation vector 
     7  2  6  2
     6  2  6  2
  processed                2179574  ao basis integrals from 
                  3633  buffers.
  processed                5088004  ao basis integrals from 
                  8481  buffers.
  processed                9723054  ao basis integrals from 
                 16206  buffers.
      12          -581.001428443117334              0.9731938051D-04
   current occupation vector 
     7  2  6  2
     6  2  6  2
  processed                2179574  ao basis integrals from 
                  3633  buffers.
  processed                5088004  ao basis integrals from 
                  8481  buffers.
  processed                9723054  ao basis integrals from 
                 16206  buffers.
      13          -581.001428448907404              0.1601256108D-04
   current occupation vector 
     7  2  6  2
     6  2  6  2
  processed                2179574  ao basis integrals from 
                  3633  buffers.
  processed                5088004  ao basis integrals from 
                  8481  buffers.
  processed                9723054  ao basis integrals from 
                 16206  buffers.
      14          -581.001428449033256              0.1891936992D-05
   current occupation vector 
     7  2  6  2
     6  2  6  2
 
 sum over diagonal and offdiagdiagonal of C(T)*S*C for irrep
                     1
  2.358113704303832E-013 -1.456417286580297E-013
 reorthoganalization of MOs is carried out
 sum over diagonal and offdiagdiagonal of C(T)*S*C for irrep
                     1
 -2.486899575160351E-014  2.672552777994206E-014
 
 sum over diagonal and offdiagdiagonal of C(T)*S*C for irrep
                     2
  1.899591595133643E-013  5.341416047229784E-014
 reorthoganalization of MOs is carried out
 sum over diagonal and offdiagdiagonal of C(T)*S*C for irrep
                     2
  2.220446049250313E-015  5.620150081802241E-015
 
 sum over diagonal and offdiagdiagonal of C(T)*S*C for irrep
                     3
  2.345901251032956E-013 -6.744226311047793E-015
 reorthoganalization of MOs is carried out
 sum over diagonal and offdiagdiagonal of C(T)*S*C for irrep
                     3
 -2.886579864025407E-015  5.473964064734349E-014
 
 sum over diagonal and offdiagdiagonal of C(T)*S*C for irrep
                     4
  3.297362383136715E-014 -1.133659215117830E-014
 reorthoganalization of MOs is carried out
 sum over diagonal and offdiagdiagonal of C(T)*S*C for irrep
                     4
  7.105427357601002E-015  2.202764364027630E-014
  processed                2179574  ao basis integrals from 
                  3633  buffers.
  processed                5088004  ao basis integrals from 
                  8481  buffers.
  processed                9723054  ao basis integrals from 
                 16206  buffers.
      15          -581.001428449054401              0.5255978658D-06
   current occupation vector 
     7  2  6  2
     6  2  6  2
  processed                2179574  ao basis integrals from 
                  3633  buffers.
  processed                5088004  ao basis integrals from 
                  8481  buffers.
  processed                9723054  ao basis integrals from 
                 16206  buffers.
      16          -581.001428449055084              0.9133381897D-07
   current occupation vector 
     7  2  6  2
     6  2  6  2
  processed                2179574  ao basis integrals from 
                  3633  buffers.
  processed                5088004  ao basis integrals from 
                  8481  buffers.
  processed                9723054  ao basis integrals from 
                 16206  buffers.
      17          -581.001428449056107              0.3791579117D-07
   current occupation vector 
     7  2  6  2
     6  2  6  2
  processed                2179574  ao basis integrals from 
                  3633  buffers.
  processed                5088004  ao basis integrals from 
                  8481  buffers.
  processed                9723054  ao basis integrals from 
                 16206  buffers.
      18          -581.001428449056448              0.1004883859D-07
   current occupation vector 
     7  2  6  2
     6  2  6  2
  processed                2179574  ao basis integrals from 
                  3633  buffers.
  processed                5088004  ao basis integrals from 
                  8481  buffers.
  processed                9723054  ao basis integrals from 
                 16206  buffers.
      19          -581.001428449055084              0.2002287947D-08
   current occupation vector 
     7  2  6  2
     6  2  6  2
 
 sum over diagonal and offdiagdiagonal of C(T)*S*C for irrep
                     1
  2.984279490192421E-013  7.695985552005009E-014
 reorthoganalization of MOs is carried out
 sum over diagonal and offdiagdiagonal of C(T)*S*C for irrep
                     1
  6.883382752675971E-015  5.053076753995798E-014
 
 sum over diagonal and offdiagdiagonal of C(T)*S*C for irrep
                     2
  4.474198789239381E-014 -5.756597639893591E-016
 reorthoganalization of MOs is carried out
 sum over diagonal and offdiagdiagonal of C(T)*S*C for irrep
                     2
  2.065014825802791E-014 -1.922748619878903E-014
 
[...]
[  7   2  84  53]-0.01383 [  3   2  84  83] 0.01382 [  4   2  53   8]-0.01354
[  6   2  83   8] 0.01353 [  6   4 129   9]-0.01135 [  5   2  84  10] 0.00991
[  3   2  85  83]-0.00906 [  7   2  85  53] 0.00906 [  7   3  83  55] 0.00900
[  4   2  53   9]-0.00898 [  7   3  88  53] 0.00897 [  6   2 129  53] 0.00896
[  6   2  83   9]-0.00895 [  4   2 129  83]-0.00894 [  4   3 129  83]-0.00884
-----------------------------------------------------------------------------
   Norm of T2AA vector (    59670 symmetry allowed elements):  0.1075538167.
-----------------------------------------------------------------------------
   Largest T1 amplitudes for spin case BB:
   i       a                 i       a                 i       a    
-----------------------------------------------------------------------------
[  1       7    ] 0.06600 [  5      83    ]-0.01925 [  3      53    ] 0.01924
[  4      84    ] 0.01358 [  4      88    ] 0.01156 [  2       9    ] 0.01022
[  6     129    ] 0.01021 [  1      17    ] 0.00808 [  1      19    ]-0.00600
[  4      90    ] 0.00540 [  2      12    ] 0.00504 [  6     131    ] 0.00504
[  2      15    ] 0.00494 [  6     132    ] 0.00494 [  4      85    ] 0.00473
-----------------------------------------------------------------------------
   Norm of T1BB vector (      244 symmetry allowed elements):  0.0785778379.
-----------------------------------------------------------------------------
   Largest T2 amplitudes for spin case BB:
   i   j   a   b             i   j   a   b             i   j   a   b
-----------------------------------------------------------------------------
[  5   1  83   7] 0.01142 [  3   1  53   7]-0.01142 [  5   3 129   9]-0.01134
[  2   1  15   7]-0.01103 [  6   1 132   7]-0.01103 [  4   1  84   7]-0.01057
[  6   2  87  53] 0.00989 [  6   2  83  55] 0.00989 [  4   2  83   7]-0.00980
[  6   4  53   7]-0.00979 [  3   2 129  83]-0.00929 [  6   5  53   9] 0.00929
[  3   1  54   7]-0.00844 [  5   1  86   7] 0.00844 [  3   2  53   9] 0.00798
-----------------------------------------------------------------------------
   Norm of T2BB vector (    43040 symmetry allowed elements):  0.0815775443.
-----------------------------------------------------------------------------
   Largest T2 amplitudes for spin case AB:
       _       _                 _       _                 _       _
   i   j   a   b             i   j   a   b             i   j   a   b
-----------------------------------------------------------------------------
[  6   5  83  83]-0.03013 [  4   3  53  53]-0.03011 [  3   2  83  83]-0.02861
[  7   6  53  53]-0.02858 [  6   1  83   7] 0.02712 [  4   1  53   7]-0.02711
[  2   1   8   7]-0.02460 [  3   4  83   7] 0.02256 [  7   4  53   7]-0.02256
[  2   4  84   7] 0.02238 [  5   1  84   7]-0.01973 [  7   1 132   7]-0.01855
[  3   1  15   7]-0.01855 [  2   1  10   7] 0.01850 [  6   2  83  15] 0.01756
-----------------------------------------------------------------------------
   Norm of T2AB vector (   242484 symmetry allowed elements):  0.3838257415.
-----------------------------------------------------------------------------
  W(mnij) AA contribution =  0.0030521087 a.u.
  W(mnij) BB contribution =  0.0016362935 a.u.
  W(mnij) AB contribution =  0.0707544431 a.u.
  W(abef) AA contribution =  0.0044674704 a.u.
  W(abef) BB contribution =  0.0024864986 a.u.
  W(abef) AB contribution =  0.1017705390 a.u.
  W(mbej) AA contribution =  -0.0110092424 a.u.
  W(mbej) BB contribution =  -0.0058810327 a.u.
  W(mbej) AB contribution = -0.2566695435 a.u.
   After  26 iterations, amplitude changes are:
    -------------------------------------------------------------------
                 Spin      RMS          Max.      Max. change for
     Amplitude   Case     Change       Change       i    j    a    b
    -------------------------------------------------------------------
        T1        AA    0.0000000000 0.0000000002    2         8
        T1        BB    0.0000000000-0.0000000007    2         7
        T2        AA    0.0000000000 0.0000000000    7    3   83   53
        T2        BB    0.0000000000 0.0000000000    6    5   53    7
        T2        AB    0.0000000000-0.0000000001    2    3   53    7
    -------------------------------------------------------------------
   The AA contribution to the correlation energy is:   -0.0206409 a.u.
   The BB contribution to the correlation energy is:   -0.0117912 a.u.
   The AB contribution to the correlation energy is:   -0.2568310 a.u.
   The total correlation energy is -0.289263104854 a.u.
   The total correlation energy is -0.289263104854 a.u.
  Current DIIS expansion coefficients : 
 [   1] 1.5277179683 [   2]-0.0263373613 [   3] 0.2390873635 [   4]-0.3192258176
 [   5]-0.4212421529
  Convergence information after    26 iterations: 
  Largest element of residual vector : -0.73800925E-09.
  Largest element of DIIS residual   : -0.44188931E-09.
  Amplitude equations converged in    26iterations.
   The AA contribution to the correlation energy is:   -0.0206409 a.u.
   The BB contribution to the correlation energy is:   -0.0117912 a.u.
   The AB contribution to the correlation energy is:   -0.2568310 a.u.
   The total correlation energy is -0.289263104864 a.u.
   The total correlation energy is -0.289263104864 a.u.
   The CC iterations have converged.

            ----------------------------------------------
                     Projected spin multiplicities: 
            ----------------------------------------------
             <0|S^2|0>                  =    0.7500000000.
             <0|S^2 (T2+T1**2) |0>      =    0.0000000000.
             <0|S^2 T1|0>               =    0.0000001747.
             Projected <0|S^2 exp(T)|0> =    0.7500001747.
             Approximate spin mult.     =    2.0000001747.
            ----------------------------------------------
   Largest T1 amplitudes for spin case AA:
   i       a                 i       a                 i       a    
-----------------------------------------------------------------------------
[  2       8    ]-0.03452 [  4      53    ] 0.02205 [  6      83    ]-0.02204
[  2      14    ]-0.01721 [  2      10    ] 0.01615 [  5      85    ] 0.01614
[  1       8    ] 0.01278 [  2      17    ] 0.01030 [  5      84    ]-0.00958
[  7     129    ] 0.00937 [  3       9    ] 0.00936 [  2      19    ]-0.00779
[  6      94    ]-0.00772 [  4      59    ]-0.00771 [  1      14    ] 0.00761
-----------------------------------------------------------------------------
   Norm of T1AA vector (      287 symmetry allowed elements):  0.0667543272.
-----------------------------------------------------------------------------
   Largest T2 amplitudes for spin case AA:
   i   j   a   b             i   j   a   b             i   j   a   b
-----------------------------------------------------------------------------
[  7   2  84  53]-0.01383 [  3   2  84  83] 0.01382 [  4   2  53   8]-0.01354
[  6   2  83   8] 0.01353 [  6   4 129   9]-0.01135 [  5   2  84  10] 0.00991
[  3   2  85  83]-0.00906 [  7   2  85  53] 0.00906 [  7   3  83  55] 0.00900
[  4   2  53   9]-0.00898 [  7   3  88  53] 0.00897 [  6   2 129  53] 0.00896
[  6   2  83   9]-0.00895 [  4   2 129  83]-0.00894 [  4   3 129  83]-0.00884
-----------------------------------------------------------------------------
   Norm of T2AA vector (    59670 symmetry allowed elements):  0.1075538167.
-----------------------------------------------------------------------------
   Largest T1 amplitudes for spin case BB:
   i       a                 i       a                 i       a    
-----------------------------------------------------------------------------
[  1       7    ] 0.06600 [  5      83    ]-0.01925 [  3      53    ] 0.01924
[  4      84    ] 0.01358 [  4      88    ] 0.01156 [  2       9    ] 0.01022
[  6     129    ] 0.01021 [  1      17    ] 0.00808 [  1      19    ]-0.00600
[  4      90    ] 0.00540 [  2      12    ] 0.00504 [  6     131    ] 0.00504
[  2      15    ] 0.00494 [  6     132    ] 0.00494 [  4      85    ] 0.00473
-----------------------------------------------------------------------------
   Norm of T1BB vector (      244 symmetry allowed elements):  0.0785778381.
-----------------------------------------------------------------------------
   Largest T2 amplitudes for spin case BB:
   i   j   a   b             i   j   a   b             i   j   a   b
-----------------------------------------------------------------------------
[  5   1  83   7] 0.01142 [  3   1  53   7]-0.01142 [  5   3 129   9]-0.01134
[  2   1  15   7]-0.01103 [  6   1 132   7]-0.01103 [  4   1  84   7]-0.01057
[  6   2  87  53] 0.00989 [  6   2  83  55] 0.00989 [  4   2  83   7]-0.00980
[  6   4  53   7]-0.00979 [  3   2 129  83]-0.00929 [  6   5  53   9] 0.00929
[  3   1  54   7]-0.00844 [  5   1  86   7] 0.00844 [  3   2  53   9] 0.00798
-----------------------------------------------------------------------------
   Norm of T2BB vector (    43040 symmetry allowed elements):  0.0815775444.
-----------------------------------------------------------------------------
   Largest T2 amplitudes for spin case AB:
       _       _                 _       _                 _       _
   i   j   a   b             i   j   a   b             i   j   a   b
-----------------------------------------------------------------------------
[  6   5  83  83]-0.03013 [  4   3  53  53]-0.03011 [  3   2  83  83]-0.02861
[  7   6  53  53]-0.02858 [  6   1  83   7] 0.02712 [  4   1  53   7]-0.02711
[  2   1   8   7]-0.02460 [  3   4  83   7] 0.02256 [  7   4  53   7]-0.02256
[  2   4  84   7] 0.02238 [  5   1  84   7]-0.01973 [  7   1 132   7]-0.01855
[  3   1  15   7]-0.01855 [  2   1  10   7] 0.01850 [  6   2  83  15] 0.01756
-----------------------------------------------------------------------------
   Norm of T2AB vector (   242484 symmetry allowed elements):  0.3838257415.
-----------------------------------------------------------------------------
       Summary of iterative solution of CC equations 
      -----------------------------------------------------------
                       Correlation           Total
       Iteration         Energy              Energy
      -----------------------------------------------------------
            0        -0.237795270305    -581.239223719360  DIIS 
            1        -0.273682565053    -581.275111014108  DIIS 
            2        -0.283754574322    -581.285183023377  DIIS 
            3        -0.288473472862    -581.289901921917  DIIS 
            4        -0.289192245218    -581.290620694273  DIIS 
            5        -0.289251612037    -581.290680061092  DIIS 
            6        -0.289255364409    -581.290683813464  DIIS 
            7        -0.289259112133    -581.290687561189  DIIS 
            8        -0.289261794341    -581.290690243397  DIIS 
            9        -0.289263028318    -581.290691477373  DIIS 
           10        -0.289263211684    -581.290691660739  DIIS 
           11        -0.289263191155    -581.290691640211  DIIS 
           12        -0.289263134120    -581.290691583175  DIIS 
           13        -0.289263099504    -581.290691548560  DIIS 
           14        -0.289263093080    -581.290691542135  DIIS 
           15        -0.289263097247    -581.290691546302  DIIS 
           16        -0.289263104754    -581.290691553810  DIIS 
           17        -0.289263107458    -581.290691556514  DIIS 
           18        -0.289263106929    -581.290691555985  DIIS 
           19        -0.289263106038    -581.290691555093  DIIS 
           20        -0.289263105272    -581.290691554328  DIIS 
           21        -0.289263104935    -581.290691553991  DIIS 
           22        -0.289263104825    -581.290691553880  DIIS 
           23        -0.289263104799    -581.290691553854  DIIS 
           24        -0.289263104810    -581.290691553865  DIIS 
           25        -0.289263104835    -581.290691553891  DIIS 
           26        -0.289263104864    -581.290691553920  DIIS 
      -----------------------------------------------------------
      A miracle has come to pass. The CC iterations have converged.
 @DIMT3-I, Dimensions of T3 amplitudes : 
               # abc          # ijk       Symmetry    Spin 
                   141315              6     1          1
                   139960             10     2          1
                   141240              9     3          1
                   139960             10     4          1
                   433590             32     1          2
                   427110             31     2          2
                   433590             32     3          2
                   427110             31     4          2
                   436636             24     1          3
                   429840             27     2          3
                   436560             27     3          3
                   429840             27     4          3
                   144210              4     1          4
                   142690              6     2          4
                   144210              4     3          4
                   142690              6     4          4
 @DIMT3-I, Dimensions of T3 amplitudes : 
               # abc          # ijk       Symmetry    Spin 
                   141315              6     1          1
                   139960             10     2          1
                   141240              9     3          1
                   139960             10     4          1
                   433590             32     1          2
                   427110             31     2          2
                   433590             32     3          2
                   427110             31     4          2
                   436636             24     1          3
                   429840             27     2          3
                   436560             27     3          3
                   429840             27     4          3
                   144210              4     1          4
                   142690              6     2          4
                   144210              4     3          4
                   142690              6     4          4
 @TRPS-I, Welcome to TRPS. Watch your RUs ! 
 @TRPS-I, Method is CCSD(T) 
 @TRPS-I, Calculation type is energy 
 @TRPS-I, Reference function information : 
          Reference function is general non-HF 
 @TRPS-I, Reference function is ROHF 
 @TRPS-I, INT1 is true 
 @TRPS-I, INT2 is false 
 @TRPS-I, Lengths of ijka integrals. #1       5574
                                     #2       3404
                                     #3       9606
                                     #4      11316
                                    Max      11316
 @INITRP-I, Initializing W intermediate lists. 
 @TSPABCI-I, AbIc/AbcI record transposition. 
 @TSPABCI-I, (O,v) ---> (v,O) transposition. 
 @TSPABCI-I, In-core algorithm is being used. 
 @TSPABCI-I, In-core algorithm is being used. 
 @TSPABCI-I, In-core algorithm is being used. 
 @TSPABCI-I, In-core algorithm is being used. 
 @TRPS-I, Available memory in integer words    499959040
          Number of pre-allocated words for TRPS14        34191
          Number of free words for TRPS14    499924849
 @TRPS14-I, Spin case AAA 
 @TRPS14-I, Number of free integer words  499924849
            Number of free double words   499924849
            Ratio                                 1
 @TRPS14-I, E4TAAA      -0.000181663389
 @TRPS14-I, E5ST A    0.000005515379163
 @TRPS14-I, E4ST A    0.000001458098101
 @TRPS-I, Available memory in integer words    499959040
          Number of pre-allocated words for TRPS14        34185
          Number of free words for TRPS14    499924855
 @TRPS14-I, Spin case BBB 
 @TRPS14-I, Number of free integer words  499924855
            Number of free double words   499924855
            Ratio                                 1
 @TRPS14-I, E4TBBB      -0.000073866424
 @TRPS14-I, E5ST B    0.000013903694071
 @TRPS14-I, E4ST B   -0.000000345402940
 @SETOOOV-I, Some OOOV lists are being transposed. 
 @TRPS-I, Available memory in integer words    499959040
          Number of pre-allocated words for TRPS2       187812
          Number of free words for TRPS2    499771228
 @TRPS2-I, Spin case AAB 
 @TRPS2-I, Number of free integer words  499771228
           Number of free double  words  499771228
           Ratio                                 1
 @TRPS2-I, E4TBAA      -0.004878194214
 @TRPS2-I, E5ST A    0.000045358628578
 @TRPS2-I, E5ST B    0.000102317617444
 @TRPS2-I, E4ST A   -0.000005115281125
 @TRPS2-I, E4ST B    0.000001120019134
 @SETOOOV-I, Some OOOV lists are being transposed. 
 @TSPABCI2-I, (Alpha,Beta) ---> (Beta,Alpha). 
 @TSPABCI2-I, In-core algorithm is being used. 
 @TSPABCI2-I, In-core algorithm is being used. 
 @TSPABCI2-I, In-core algorithm is being used. 
 @TSPABCI2-I, In-core algorithm is being used. 
 @TSPABCI2-I, In-core algorithm is being used. 
 @TSPABCI2-I, In-core algorithm is being used. 
 @TSPABCI2-I, In-core algorithm is being used. 
 @TSPABCI2-I, In-core algorithm is being used. 
 @AT2IAB-I, Some AbIj lists are being altered. 
 @TRPS-I, Available memory in integer words    499959040
          Number of pre-allocated words for TRPS3       324244
          Number of free words for TRPS3    499634796
 @TRPS3-I, Spin case BBA 
 @TRPS3-I, Number of free integer words  499634796
           Number of free double  words  499634796
           Ratio                                 1
 @TRPS3-I, E4TBBA      -0.003463270815
 @TRPS3-I, E5ST A    0.000072141945851
 @TRPS3-I, E5ST B    0.000238826253360
 @TRPS3-I, E4ST A   -0.000007627424101
 @TRPS3-I, E4ST B    0.000005379178786
 @TSPABCI2-I, (Beta,Alpha) ---> (Alpha,Beta). 
 @TSPABCI2-I, In-core algorithm is being used. 
 @TSPABCI2-I, In-core algorithm is being used. 
 @TSPABCI2-I, In-core algorithm is being used. 
 @TSPABCI2-I, In-core algorithm is being used. 
 @TSPABCI2-I, In-core algorithm is being used. 
 @TSPABCI2-I, In-core algorithm is being used. 
 @TSPABCI2-I, In-core algorithm is being used. 
 @TSPABCI2-I, In-core algorithm is being used. 
 @AT2IAB-I, Some AbIj lists are being altered. 
 @TSPABCI-I, AbIc/AbcI record transposition. 
 @TSPABCI-I, (v,O) ---> (O,v) transposition. 
 @TSPABCI-I, In-core algorithm is being used. 
 @TSPABCI-I, In-core algorithm is being used. 
 @TSPABCI-I, In-core algorithm is being used. 
 @TSPABCI-I, In-core algorithm is being used. 
 @CCENRG-I, CCSD/QCISD energy will now be evaluated. 
 @CCENRG-I, Correlation energies. ECCAA       -0.020640864859
                                  ECCBB       -0.011791233930
                                  ECCAB       -0.256831006076
                                  Total       -0.289263104864
 @CCENRG-I, Reference   energy    -581.001428449055
            CCSD/QCISD energy     -581.290691553920
          E4T (T(CCSD)) = -0.008596994843
          E5ST          =  0.000310968199
          E4ST          = -0.000002248245
          In other words  
          <T3[2](Dagger) D3  T3[2]> = -0.008596994843
          <T1   (Dagger) Q1 WT3[2]> =  0.000310968199
          <T2   (Dagger) Q2 FT3[2]> = -0.000002248245
        E(CCSD)           =    -581.290691553920
        E(CCSD(T))        =    -581.298979828808
  @CHECKOUT-I, Total execution time (CPU/WALL):      128.82/     147.77 seconds.
--executable xvcc finished with status     0 in      150.39 seconds (walltime).
  The final electronic energy is      -581.298979828808456 a.u. 
  This computation required                          355.17 seconds (walltime).
--- SharcNET Job Epilogue ---
Job completed successfully.
               jobid: 1967866
               resid: 3435137
         exit status: 0
      allocated time: 356.242
           user time: 180.54
         system time: 19.28
peak rss=3778428928; peak vsz=3778428928 (bytes)
atime=356.242; utime=180.54; stime=19.28; exit=0
