 **********************************************************************
                          MRCC program system
 **********************************************************************
 
                              Written by
 Mihaly Kallay, Peter R. Nagy, David Mester, Zoltan Rolik, Gyula Samu,
   Jozsef Csontos, Jozsef Csoka, P. Bernat Szabo, Laszlo Gyevi-Nagy,
    Bence Hegely, Istvan Ladjanszki, Lorant Szegedy, Bence Ladoczki,
       Klara Petrov, Mate Farkas, Pal D. Mezei, and Adam Ganyecz
 
        Department of Physical Chemistry and Materials Science
            Budapest University of Technology and Economics
                  Budapest P.O.Box 91, H-1521 Hungary
 
                              www.mrcc.hu
 
                    Release date: February 22, 2020

 ************************ 2021-07-31 17:37:41 *************************
 Executing minp...

 Reading input from MINP...
 
 Input file:
 
#
#TITLE
basis=def2-TZVPP
uncontract=off
#iface=cfour
calc=CC(4)(5)
mem=56GB
#core=1
core=frozen
itol=18
scftol=13
cctol=5
ccmaxit=999
scfmaxit=9999
scftype=ROHF
rohftype=semicanonical
scfiguess=ao
rest=2
charge=+1
mult=2
#symm=1
#occ=3,0,0,0,0,1,2,2/3,0,0,0,0,1,1,1

#refdet=serialno
#1
#2,3

unit=angs
geom=xyz
2

B 0.0000 0.0000 0.0000
N 0.0000 0.0000 1.329

#Li 1 R

#R=3.065


tprint=0.01
verbosity=3
#nstate=4


 
 
 Checking keyword combinations...
 
 Keywords:
 
 active=none
 agrid=ld0006-ld0590
 basis=def2-tzvpp
 basis_sm=none
 basopt=off
 bfbasis=none
 bfgsmem=10
 bfgstol=1.0d-3
 bpcompo=0.985
 bpcompv=0.98
 bpdfo=0.985
 bpocc=0.985
 bppdo=0.985
 bppdv=0.98
 bpedo=0.985
 bpedv=0.98
 calc=cc(4)(5)
 ccmaxit=999
 ccprog=mrcc
 ccsdalg=disk
 ccsdmkl=seq
 ccsdrest=off
 ccsdthreads=2
 cctol=5
 charge=+1
 cialg=disk
 ciguess=off
 cmpgrp=auto
 core=frozen
 corembed=off
 csapprox=off
 dboc=off
 dendec=cholesky
 dens=0
 dfalg=lineq
 dfbasis_cor=none
 dfbasis_scf=none
 dfintran=ovirt
 dft=off
 dhexc=adc(2)
 diag=david
 docc=
 domrad=10.d0
 drpaalg=fit
 dual=off
 ecp=auto
 edisp=off
 edisp_embed=off
 embed=off
 epert=none
 eps=0.975
 excrad=0.d0
 excrad_fin=0.000000000D+00
 fmm=off
 fmmord=8
 freq=off
 gauss=spher
 geom=xyz
 gopt=off
 ghost=none
 gtol=7
 grdens=off
 grtol=10
 hamilton=dc
 iface=none
 intalg=auto
 itol=18
 laptol=1.d-2
 lccoporder=trffirst
 lcorthr=normal
 lccrest=off
 lmp2dens=on
 lnoepso=0.d0
 lnoepsv=1e-6
 localcc=off
 localcorrsymm=off
 locintrf=disk
 mact=
 maxact=off
 maxdim=100
 maxex=0
 maxmicroit=100
 mcscfiguess=hf
 mem=56gb
 molden=on
 mpitasks=1
 mulmet=0
 mult=2
 nacto=0
 nactv=0
 naf_cor=off
 naf_scf=off
 nafalg=albe
 naftyp=
 nchol=auto
 ndeps=1e-3
 nstate=1
 nsing=0
 ntrip=0
 occ=
 oniom=off
 oniom_eechg=off
 oniom_pcm=off
 optalg=
 optmaxit=50
 optetol=1e-6
 optex=   0
 optgtol=1e-4
 optstol=1e-3
 orblocc=off
 orbloce=off
 orbloco=off
 orblocv=off
 orblocguess=cholesky
 osveps=1e-3
 ovirt=off
 ovltol=1e-7
 ovosnorb=80.0
 pcm=off
 popul=off
 pressure=100000
 pssp=off
 ptfreq=0.0
 ptthreads=2
 qscf=off
 qmmm=off
 redcost_exc=off
 redcost_tddft=off
 refdet=none
 rest=2
 rgrid=log3
 rohfcore=semicanonical
 rohftype=semicanonical
 scfalg=auto
 scfdamp=off
 scfdiis=on
 scfdiis_end=9999
 scfdiis_start=1
 scfdiis_step=1
 scfdtol=14
 scfext=10
 scfguessdens=
 scfiguess=ao
 scflshift=off
 scfmaxit=9999
 scftype=rohf
 scftol=13
 scspe=1.d0
 scsph=1.d0
 scsps=1.2d0
 scspt=0.33333333333333
 scspv=1.d0
 spairtol=1e-4
 subminp=top
 symm=
 talg=occ
 temp=298.15
 test=off
 theodore=off
 tlmo=0.999
 tpao=0.94
 tprint=0.01
 uncontract=off
 unit=angs
 usedisk=2
 verbosity=3
 wpairtol=0.100000000E-05

 ************************ 2021-07-31 17:37:42 *************************
 Executing integ...

 Allocation of 56.0 Gbytes of memory...
 
 
 Number of atoms:                  2
 Charge:                           1
 Number of electrons:             11
 Number of core electrons:         4
 Spin multiplicity:                2
 
                 Cartesian coordinates [bohr]      Atomic mass [AMU]  Z
   1  B     0.00000000    0.00000000    0.00000000    11.009305       5
   2  N     0.00000000    0.00000000    2.51144602    14.003074       7
 
 This molecule is linear.
 
 Rotational constants [cm-1]: 
      1.548525067173
 
 Point group: Cxv 
 Computational point group: C2v 
 
 Cartesian coordinates in standard orientation [bohr]
   1  B     0.00000000    0.00000000   -1.40602235
   2  N     0.00000000    0.00000000    1.10542367
 
 Nuclear repulsion energy [au]:         13.936194411926
 
 
 Basis set information:
 
 Maximum angular momentum: f
 Maximum number of contracted Gaussians:    5
 Maximum number of primitive Gaussians:    11
 Spherical harmonic GTOs are used.
 
    1  B  def2-tzvpp [ 11s 6p 2d 1f | 5s 3p 2d 1f ]
    2  N  def2-tzvpp [ 11s 6p 2d 1f | 5s 3p 2d 1f ]
 
 Basis functions:
            1             2             3             4             5             6             7             8             9            10
    0    1B1s          1B2s          1B3s          1B4s          1B5s          1B1pz         1B1py         1B1px         1B2pz         1B2py     
    1    1B2px         1B3pz         1B3py         1B3px         1B1d-2        1B1d-1        1B1d0         1B1d+1        1B1d+2        1B2d-2    
    2    1B2d-1        1B2d0         1B2d+1        1B2d+2        1B1f-3        1B1f-2        1B1f-1        1B1f0         1B1f+1        1B1f+2    
    3    1B1f+3        2N1s          2N2s          2N3s          2N4s          2N5s          2N1pz         2N1py         2N1px         2N2pz     
    4    2N2py         2N2px         2N3pz         2N3py         2N3px         2N1d-2        2N1d-1        2N1d0         2N1d+1        2N1d+2    
    5    2N2d-2        2N2d-1        2N2d0         2N2d+1        2N2d+2        2N1f-3        2N1f-2        2N1f-1        2N1f0         2N1f+1    
    6    2N1f+2        2N1f+3    
 
 Maximum number of basis functions per shell:   10
 Total number of basis functions:     62
 
 
 Character table for point group C2v:
 
          E  C2  Qh  Qv  
    A1    1   1   1   1
    B1    1  -1   1  -1
    B2    1  -1  -1   1
    A2    1   1  -1  -1
 
 Number of basis functions per irrep:
    A1     28
    B1     14
    B2     14
    A2      6
 
 
 Calculation of overlap integrals...
 CPU time [min]:     0.008                   Wall time [min]:     0.070
 
 Calculation of the square root of the overlap matrix...
 Minimum eigenvalue of the overlap matrix: 0.791733E-03
 CPU time [min]:     0.009                   Wall time [min]:     0.141
 
 Calculation of kinetic energy integrals...
 CPU time [min]:     0.009                   Wall time [min]:     0.141
 Calculation of nuclear attraction integrals...
 CPU time [min]:     0.009                   Wall time [min]:     0.141
 
 Calculation of prescreening integrals...
 CPU time [min]:     0.010                   Wall time [min]:     0.142
 
 Calculation of two-electron integrals...
   2% done.
  28% done.
  62% done.
 100% done.
 CPU time [min]:     0.019                   Wall time [min]:     0.151

 ************************ 2021-07-31 17:37:51 *************************
 Executing scf...

 @scfsetup: integrals taken from disk
            mrcc/integ binary format
 @scfsetup: calc on blockdiagonal matrices
            using symmetry adapted basis
 @scfsetup: diis switched on
 @scfsetup: number of steps to extrapolate from  10
 @scfsetup: tolerance in energy deviation    0.100000E-12
            tolerance in density deviation    0.100000E-13
 @scfsetup: maximum number of iterations:9999
 @scfsetup: restricted open shell hf calc
            semicanonical orbitals
 @scfsetup: starting scf from diagonal ao guess
 @scfsetup: occupation set:
            from initial orbitals
 @scfsetup: diis runs from iteration:   1
 @scfsetup: diis runs to iteration:9999
 @scfsetup: diis runs in every iteration
 Allocation of 56.0 Gbytes of memory...
 ======================================================================
 ITERATION STEP   1
 CPU time [min]:     0.003                   Wall time [min]:     0.006
 
 Gradient norm:      0.0000E+00
 RMS of total difference density:                      0.10670800666018
 RMS of open-shell difference density:                 0.03249750197327
 Gap [au]:  0.07556855
 ALPHA OCC:   4   1   1   0
 BETA  OCC:   3   1   1   0
 
 ***HARTREE-FOCK ENERGY IN STEP   1 IS     -67.0665969952490144 [AU]
 ======================================================================
 ITERATION STEP   2
 CPU time [min]:     0.004                   Wall time [min]:     0.011
 
 Gradient norm:      0.0000E+00
 DIIS is running in this iteration step.
 RMS of [F,P]:                                         0.18999601178469
 RMS of total difference density:                      0.08302706634511
 RMS of open-shell difference density:                 0.03533623945898
 Gap [au]:  0.90174372
 ALPHA OCC:   4   1   1   0
 BETA  OCC:   4   1   0   0
 
 ***HARTREE-FOCK ENERGY IN STEP   2 IS     -74.4194214124078286 [AU]
 ======================================================================
 ITERATION STEP   3
 CPU time [min]:     0.005                   Wall time [min]:     0.013
 
 Gradient norm:      0.0000E+00
 DIIS is running in this iteration step.
 RMS of [F,P]:                                         0.11888025050833
 RMS of total difference density:                      0.06845953226422
 RMS of open-shell difference density:                 0.01912902974378
 Gap [au]:  0.01523951
 ALPHA OCC:   4   1   1   0
 BETA  OCC:   4   1   0   0
 
 ***HARTREE-FOCK ENERGY IN STEP   3 IS     -76.5580124468678491 [AU]
 ======================================================================
 ITERATION STEP   4
 CPU time [min]:     0.006                   Wall time [min]:     0.013
 
 Gradient norm:      0.0000E+00
 DIIS is running in this iteration step.
 RMS of [F,P]:                                         0.08184315892541
 RMS of total difference density:                      0.04570456331060
 RMS of open-shell difference density:                 0.01323903861523
 Gap [au]:  0.12588896
 ALPHA OCC:   4   1   1   0
 BETA  OCC:   4   1   0   0
 
 ***HARTREE-FOCK ENERGY IN STEP   4 IS     -77.0122736813772804 [AU]
 ======================================================================
 ITERATION STEP   5
 CPU time [min]:     0.006                   Wall time [min]:     0.014
 
 Gradient norm:      0.0000E+00
 DIIS is running in this iteration step.
 RMS of [F,P]:                                         0.02814681047553
 RMS of total difference density:                      0.01220141346921
 RMS of open-shell difference density:                 0.00238004156781
 Gap [au]:  0.09581568
 ALPHA OCC:   4   1   1   0
 BETA  OCC:   4   1   0   0
 
 ***HARTREE-FOCK ENERGY IN STEP   5 IS     -78.3988420713402263 [AU]
 ======================================================================
 ITERATION STEP   6
 CPU time [min]:     0.007                   Wall time [min]:     0.015
 
 Gradient norm:      0.0000E+00
 DIIS is running in this iteration step.
 RMS of [F,P]:                                         0.00890103628355
 RMS of total difference density:                      0.00476942010939
 RMS of open-shell difference density:                 0.00060883759016
 Gap [au]:  0.10796444
 ALPHA OCC:   4   1   1   0
 BETA  OCC:   4   1   0   0
 
 ***HARTREE-FOCK ENERGY IN STEP   6 IS     -78.5279597638687932 [AU]
 ======================================================================
 ITERATION STEP   7
 CPU time [min]:     0.008                   Wall time [min]:     0.015
 
 Gradient norm:      0.0000E+00
 DIIS is running in this iteration step.
 RMS of [F,P]:                                         0.00175852340651
 RMS of total difference density:                      0.00119840683798
 RMS of open-shell difference density:                 0.00014019648091
 Gap [au]:  0.11537881
 ALPHA OCC:   4   1   1   0
 BETA  OCC:   4   1   0   0
 
 ***HARTREE-FOCK ENERGY IN STEP   7 IS     -78.5447034013595982 [AU]
 ======================================================================
 ITERATION STEP   8
 CPU time [min]:     0.008                   Wall time [min]:     0.016
 
 Gradient norm:      0.0000E+00
 DIIS is running in this iteration step.
 RMS of [F,P]:                                         0.00053987632736
 RMS of total difference density:                      0.00067464911377
 RMS of open-shell difference density:                 0.00027844802745
 Gap [au]:  0.11765759
 ALPHA OCC:   4   1   1   0
 BETA  OCC:   4   1   0   0
 
 ***HARTREE-FOCK ENERGY IN STEP   8 IS     -78.5457727506659609 [AU]
 ======================================================================
 ITERATION STEP   9
 CPU time [min]:     0.009                   Wall time [min]:     0.017
 
 Gradient norm:      0.0000E+00
 DIIS is running in this iteration step.
 RMS of [F,P]:                                         0.00039221331603
 RMS of total difference density:                      0.00072939222457
 RMS of open-shell difference density:                 0.00027204620819
 Gap [au]:  0.11752529
 ALPHA OCC:   4   1   1   0
 BETA  OCC:   4   1   0   0
 
 ***HARTREE-FOCK ENERGY IN STEP   9 IS     -78.5460469702692166 [AU]
 ======================================================================
 ITERATION STEP  10
 CPU time [min]:     0.010                   Wall time [min]:     0.018
 
 Gradient norm:      0.0000E+00
 DIIS is running in this iteration step.
 RMS of [F,P]:                                         0.00021240733825
 RMS of total difference density:                      0.00039424065370
 RMS of open-shell difference density:                 0.00004781901064
 Gap [au]:  0.11652552
 ALPHA OCC:   4   1   1   0
 BETA  OCC:   4   1   0   0
 
 ***HARTREE-FOCK ENERGY IN STEP  10 IS     -78.5462087662637032 [AU]
 ======================================================================
 ITERATION STEP  11
 CPU time [min]:     0.010                   Wall time [min]:     0.018
 
 Gradient norm:      0.0000E+00
 DIIS is running in this iteration step.
 RMS of [F,P]:                                         0.00006107965651
 RMS of total difference density:                      0.00013040278751
 RMS of open-shell difference density:                 0.00004001228049
 Gap [au]:  0.11651592
 ALPHA OCC:   4   1   1   0
 BETA  OCC:   4   1   0   0
 
 ***HARTREE-FOCK ENERGY IN STEP  11 IS     -78.5462420380848130 [AU]
 ======================================================================
 ITERATION STEP  12
 CPU time [min]:     0.011                   Wall time [min]:     0.019
 
 Gradient norm:      0.0000E+00
 DIIS is running in this iteration step.
 RMS of [F,P]:                                         0.00003012088386
 RMS of total difference density:                      0.00012852625028
 RMS of open-shell difference density:                 0.00003412761386
 Gap [au]:  0.11638614
 ALPHA OCC:   4   1   1   0
 BETA  OCC:   4   1   0   0
 
 ***HARTREE-FOCK ENERGY IN STEP  12 IS     -78.5462469184563190 [AU]
 ======================================================================
 ITERATION STEP  13
 CPU time [min]:     0.012                   Wall time [min]:     0.020
 
 Gradient norm:      0.0000E+00
 DIIS is running in this iteration step.
 RMS of [F,P]:                                         0.00000632588681
 RMS of total difference density:                      0.00001896947074
 RMS of open-shell difference density:                 0.00000638747340
 Gap [au]:  0.11631387
 ALPHA OCC:   4   1   1   0
 BETA  OCC:   4   1   0   0
 
 ***HARTREE-FOCK ENERGY IN STEP  13 IS     -78.5462487853063891 [AU]
 ======================================================================
 ITERATION STEP  14
 CPU time [min]:     0.012                   Wall time [min]:     0.021
 
 Gradient norm:      0.0000E+00
 DIIS is running in this iteration step.
 RMS of [F,P]:                                         0.00000120559715
 RMS of total difference density:                      0.00000124516204
 RMS of open-shell difference density:                 0.00000060370404
 Gap [au]:  0.11630830
 ALPHA OCC:   4   1   1   0
 BETA  OCC:   4   1   0   0
 
 ***HARTREE-FOCK ENERGY IN STEP  14 IS     -78.5462488239936505 [AU]
 ======================================================================
 ITERATION STEP  15
 CPU time [min]:     0.013                   Wall time [min]:     0.021
 
 Gradient norm:      0.0000E+00
 DIIS is running in this iteration step.
 RMS of [F,P]:                                         0.00000024051709
 RMS of total difference density:                      0.00000019959630
 RMS of open-shell difference density:                 0.00000007190889
 Gap [au]:  0.11630965
 ALPHA OCC:   4   1   1   0
 BETA  OCC:   4   1   0   0
 
 ***HARTREE-FOCK ENERGY IN STEP  15 IS     -78.5462488243848895 [AU]
 ======================================================================
 ITERATION STEP  16
 CPU time [min]:     0.014                   Wall time [min]:     0.022
 
 Gradient norm:      0.0000E+00
 DIIS is running in this iteration step.
 RMS of [F,P]:                                         0.00000001532072
 RMS of total difference density:                      0.00000004888300
 RMS of open-shell difference density:                 0.00000001220972
 Gap [au]:  0.11630976
 ALPHA OCC:   4   1   1   0
 BETA  OCC:   4   1   0   0
 
 ***HARTREE-FOCK ENERGY IN STEP  16 IS     -78.5462488243988020 [AU]
 ======================================================================
 ITERATION STEP  17
 CPU time [min]:     0.014                   Wall time [min]:     0.023
 
 Gradient norm:      0.0000E+00
 DIIS is running in this iteration step.
 RMS of [F,P]:                                         0.00000000150350
 RMS of total difference density:                      0.00000000490254
 RMS of open-shell difference density:                 0.00000000116165
 Gap [au]:  0.11630975
 ALPHA OCC:   4   1   1   0
 BETA  OCC:   4   1   0   0
 
 ***HARTREE-FOCK ENERGY IN STEP  17 IS     -78.5462488243989583 [AU]
 ======================================================================
 ITERATION STEP  18
 CPU time [min]:     0.015                   Wall time [min]:     0.023
 
 Gradient norm:      0.0000E+00
 DIIS is running in this iteration step.
 RMS of [F,P]:                                         0.00000000062198
 RMS of total difference density:                      0.00000000093775
 RMS of open-shell difference density:                 0.00000000033130
 Gap [au]:  0.11630975
 ALPHA OCC:   4   1   1   0
 BETA  OCC:   4   1   0   0
 
 ***HARTREE-FOCK ENERGY IN STEP  18 IS     -78.5462488243989156 [AU]
 ======================================================================
 ITERATION STEP  19
 CPU time [min]:     0.016                   Wall time [min]:     0.024
 
 Gradient norm:      0.0000E+00
 DIIS is running in this iteration step.
 RMS of [F,P]:                                         0.00000000003890
 RMS of total difference density:                      0.00000000006232
 RMS of open-shell difference density:                 0.00000000000714
 Gap [au]:  0.11630975
 ALPHA OCC:   4   1   1   0
 BETA  OCC:   4   1   0   0
 
 ***HARTREE-FOCK ENERGY IN STEP  19 IS     -78.5462488243988446 [AU]
 ======================================================================
 ITERATION STEP  20
 CPU time [min]:     0.016                   Wall time [min]:     0.025
 
 Gradient norm:      0.0000E+00
 DIIS is running in this iteration step.
 RMS of [F,P]:                                         0.00000000000328
 RMS of total difference density:                      0.00000000001224
 RMS of open-shell difference density:                 0.00000000000135
 Gap [au]:  0.11630975
 ALPHA OCC:   4   1   1   0
 BETA  OCC:   4   1   0   0
 
 ***HARTREE-FOCK ENERGY IN STEP  20 IS     -78.5462488243990009 [AU]
 ======================================================================
 ITERATION STEP  21
 CPU time [min]:     0.017                   Wall time [min]:     0.025
 
 Gradient norm:      0.0000E+00
 DIIS is running in this iteration step.
 RMS of [F,P]:                                         0.00000000000058
 RMS of total difference density:                      0.00000000000107
 RMS of open-shell difference density:                 0.00000000000012
 Gap [au]:  0.11630975
 ALPHA OCC:   4   1   1   0
 BETA  OCC:   4   1   0   0
 
 ***HARTREE-FOCK ENERGY IN STEP  21 IS     -78.5462488243989583 [AU]
 ======================================================================
 ITERATION STEP  22
 CPU time [min]:     0.017                   Wall time [min]:     0.026
 
 Gradient norm:      0.0000E+00
 DIIS is running in this iteration step.
 RMS of [F,P]:                                         0.00000000000017
 RMS of total difference density:                      0.00000000000050
 RMS of open-shell difference density:                 0.00000000000008
 Gap [au]:  0.11630975
 ALPHA OCC:   4   1   1   0
 BETA  OCC:   4   1   0   0
 
 ***HARTREE-FOCK ENERGY IN STEP  22 IS     -78.5462488243989156 [AU]
 ======================================================================
 ITERATION STEP  23
 CPU time [min]:     0.018                   Wall time [min]:     0.027
 
 Gradient norm:      0.0000E+00
 DIIS is running in this iteration step.
 RMS of [F,P]:                                         0.00000000000003
 RMS of total difference density:                      0.00000000000006
 RMS of open-shell difference density:                 0.00000000000001
 Gap [au]:  0.11630975
 ALPHA OCC:   4   1   1   0
 BETA  OCC:   4   1   0   0
 
 ***HARTREE-FOCK ENERGY IN STEP  23 IS     -78.5462488243989299 [AU]
 ======================================================================
 ITERATION STEP  24
 CPU time [min]:     0.018                   Wall time [min]:     0.027
 
 Gradient norm:      0.0000E+00
 DIIS is running in this iteration step.
 RMS of [F,P]:                                         0.00000000000000
 RMS of total difference density:                      0.00000000000002
 RMS of open-shell difference density:                 0.00000000000000
 Gap [au]:  0.11630975
 ALPHA OCC:   4   1   1   0
 BETA  OCC:   4   1   0   0
 
 ***HARTREE-FOCK ENERGY IN STEP  24 IS     -78.5462488243989441 [AU]
 ======================================================================
 ITERATION STEP  25
 CPU time [min]:     0.019                   Wall time [min]:     0.028
 
 Gradient norm:      0.0000E+00
 DIIS is running in this iteration step.
 RMS of [F,P]:                                         0.00000000000000
 RMS of total difference density:                      0.00000000000002
 RMS of open-shell difference density:                 0.00000000000000
 Gap [au]:  0.11630975
 ALPHA OCC:   4   1   1   0
 BETA  OCC:   4   1   0   0
 
 ***HARTREE-FOCK ENERGY IN STEP  25 IS     -78.5462488243989583 [AU]
 ======================================================================
 ITERATION STEP  26
 CPU time [min]:     0.019                   Wall time [min]:     0.028
 
 Gradient norm:      0.0000E+00
 DIIS is running in this iteration step.
 RMS of [F,P]:                                         0.00000000000000
 RMS of total difference density:                      0.00000000000001
 RMS of open-shell difference density:                 0.00000000000000
 Gap [au]:  0.11630975
 ALPHA OCC:   4   1   1   0
 BETA  OCC:   4   1   0   0
 
 ***HARTREE-FOCK ENERGY IN STEP  26 IS     -78.5462488243988588 [AU]
 ======================================================================
 
 SUCCESS...
 THE SCF ITERATION HAS CONVERGED!
 
                   A1  B1  B2  A2  
 FINAL ALPHA OCC:   4   1   1   0
 FINAL BETA  OCC:   4   1   0   0
 
 ***FINAL HARTREE-FOCK ENERGY:    -78.5462488243988588 [AU]
 
 ***SEMICANONICAL ROHF ENERGY:    -78.5462488243989014 [AU]
 
 Orbital energies [au]:
      Irrep         Alpha          Beta
    1   A1       -15.980551     -15.960307
    2   A1        -8.155766      -8.151597
    3   A1        -1.473974      -1.367269
    4   A1        -0.867597      -0.829271
    5   B1        -0.777974      -0.754655
 
    6   B2        -0.843770      -0.321308
 
    7   A1        -0.430240      -0.418754
    8   B2        -0.211071      -0.094266
    9   B1        -0.185486      -0.176029
   10   A1        -0.062028      -0.060164
   11   A1        -0.057769      -0.051746
   12   B2        -0.009990       0.009564
   13   B1        -0.002665      -0.000843
   14   A1         0.200318       0.208922
   15   A2         0.226378       0.243109
   16   A1         0.227471       0.243325
   17   A1         0.254420       0.265913
   18   B2         0.300256       0.358547
   19   B1         0.326877       0.332328
   20   B2         0.364335       0.400482
   21   B1         0.382984       0.387306
   22   A1         0.391529       0.404184
   23   A1         0.582243       0.586724
   24   A1         0.704499       0.721621
   25   B2         0.739335       0.762960
   26   B1         0.755002       0.758205
   27   A1         0.872288       0.885042
   28   A1         1.002656       1.054059
   29   A2         1.002686       1.053325
   30   B2         1.265967       1.315852
   31   B1         1.296939       1.304409
   32   A1         1.523884       1.539156
   33   B2         1.550190       1.561015
   34   B1         1.550196       1.561008
   35   A2         1.629656       1.642337
   36   A1         1.630028       1.642589
   37   B2         1.672057       1.686060
   38   B1         1.690985       1.693721
   39   A2         1.748818       1.765215
   40   A1         1.748957       1.765291
   41   A1         1.855467       1.865018
   42   B2         2.011893       2.080606
   43   B1         2.051818       2.060937
   44   A1         2.105688       2.123848
   45   B2         2.439422       2.483484
   46   A1         2.448221       2.459216
   47   B1         2.476203       2.483913
   48   A1         3.080002       3.100785
   49   B1         3.948143       3.987131
   50   B2         3.948169       3.987163
   51   A1         4.184221       4.219261
   52   A2         4.184648       4.218976
   53   B2         4.548426       4.598542
   54   B1         4.589722       4.598788
   55   A1         4.626478       4.678573
   56   A2         4.627735       4.678303
   57   A1         4.828775       4.849324
   58   B2         4.975293       5.012367
   59   B1         5.010389       5.017453
   60   A1         5.226247       5.240395
   61   A1        14.058022      14.060834
   62   A1        32.496778      32.508584
 
 RETURNING FROM SCF ALGORITHM
 ======================================================================

 ************************ 2021-07-31 17:38:11 *************************
 Executing ovirt...

 ovirt, the routine of orbital optimization and integral transformation 
Sat Jul 31 17:38:11 EDT 2021
 memory =                  57344  Mb            7516192768  8 byte word
 mrccboot = T
 scftype  = rohf 
 localcc  = off 
 core     = frozen
 ovirt    = off  
 ccprog   = mrcc
 dfnbasis =                      0
 dfbasis_cor =none                
 lmp2dens = on 
 dens =                      0
 verblev =                      3
 task     =                      4
 epsilon =   0.975000000000000     
 lmp2= on 
 localNO  =  F
 localMP2 =  F
 localMP2_TEST =  F
 LMP2_shortcut =  F
 FOCKTR   =  T
 Allocated memory:                   57344  Mb
 onbasis=                    62
 UHF calculation! 
 integral transformation: AOs --- MOs (alpha-alpha)
 # of basis functions, # of int. blocks    62     1
100 % 
 second part
100 %
 integral transformation is completed! 
 integral transformation: AOs ------ MOs (beta-beta)
 # of basis functions, # of int. blocks    62     1
100 % 
 second part
100 %
 integral transformation is completed! 
 integral transformation: AOs ----- MOs (alpha-beta)
# of basis functions, # of int. blocks    62     1
 integral transformation
======================================== 
Sat Jul 31 17:38:21 EDT 2021
  ovirt terminated normally 

 ************************ 2021-07-31 17:38:21 *************************
 Executing goldstone...

 Generation of CC equations in terms of H and T...
 Generation of antisymmetrized Goldstone diagrams...
 Number of diagrams in T^1 equations:    15
 Number of diagrams in T^2 equations:    38
 Number of diagrams in T^3 equations:    54
 Number of diagrams in T^4 equations:    77
 Number of diagrams in T^5 equations:     8
 Translation of diagrams to factorized equations...
 Optimizing intermediate calculation...
 Number of floating-point operations per iteration step:   4.1593E+12
 Probable CPU time per iteration step (hours):     41.59
 Required memory (Mbytes):    5622.2
 Number of intermediates:                                 119
 Number of intermediates to be stored:                     52
 Length of intermediate file (Mbytes):     983.5

 ************************ 2021-07-31 17:38:41 *************************
 Executing xmrcc...

 **********************************************************************
 CC(4)(5) calculation 
 
 
 Allocation of5622.2 Mbytes of memory...
 Number of spinorbitals:                   120
 Number of alpha electrons:                        4
 Number of beta electrons:                         3
 Spin multiplicity:                     2
 z-component of spin:  0.5
 Spatial symmetry:                      3
 Convergence criterion:  1.0E-05
 Construction of occupation graphs...
 Number of                     0 -fold excitations:                      1
 Number of                     1 -fold excitations:                    135
 Number of                     2 -fold excitations:                  13778
 Number of                     3 -fold excitations:                 699446
 Number of                     4 -fold excitations:               17511901
 Total number of configurations:               18225261
 Calculation of coupling coefficients...
 Length of intermediate file (Mbytes):     644.9
 
 ======================================================================
 
 Spin case  1   Alpha:  2   Beta:  3
 Number of excitations:               67591400
 Spin case  2   Alpha:  3   Beta:  2
 Number of excitations:              132676908
 Spin case  3   Alpha:  4   Beta:  1
 Number of excitations:               15696105
 Number of                     5 -fold excitations:              215964413
 
 Memory requirements /Mbyte/: 
               Minimal        Optimal
 Real*8:        781.1882       781.1882
 Integer:       125.5120
 Total:         906.7003       906.7003
 

 ************************ 2021-07-31 17:38:44 *************************
 Executing goldstone...

 Generation of CC equations in terms of H and T...
 Generation of antisymmetrized Goldstone diagrams...
 Number of diagrams in T^1 equations:    15
 Number of diagrams in T^2 equations:    34
 Number of diagrams in T^3 equations:     2
 Translation of diagrams to factorized equations...
 Optimizing intermediate calculation...
 Number of floating-point operations per iteration step:   7.5509E+08
 Probable CPU time per iteration step (hours):      0.01
 Required memory (Mbytes):    1343.0
 Number of intermediates:                                  49
 Number of intermediates to be stored:                     20
 Length of intermediate file (Mbytes):      49.1

 ************************ 2021-07-31 17:38:44 *************************
 Executing xmrcc...

 **********************************************************************
 CC(2)(3) calculation 
 
 
 Allocation of1343.0 Mbytes of memory...
 Number of spinorbitals:                   120
 Number of alpha electrons:                        4
 Number of beta electrons:                         3
 Spin multiplicity:                     2
 z-component of spin:  0.5
 Spatial symmetry:                      3
 Convergence criterion:  1.0E-05
 Construction of occupation graphs...
 Number of                     0 -fold excitations:                      1
 Number of                     1 -fold excitations:                    135
 Number of                     2 -fold excitations:                  13778
 Total number of configurations:                  13914
 Calculation of coupling coefficients...
 Length of intermediate file (Mbytes):      38.1
 
 ======================================================================
 
 Spin case  1   Alpha:  0   Beta:  3
 Number of excitations:                   7268
 Spin case  2   Alpha:  1   Beta:  2
 Number of excitations:                 269892
 Spin case  3   Alpha:  2   Beta:  1
 Number of excitations:                 395040
 Spin case  4   Alpha:  3   Beta:  0
 Number of excitations:                  27246
 Number of                     3 -fold excitations:                 699446
 
 Memory requirements /Mbyte/: 
               Minimal        Optimal
 Real*8:         21.2692        98.9907
 Integer:         0.7622
 Total:          22.0313        99.7529
 

 ************************ 2021-07-31 17:38:44 *************************
 Executing mrcc...

 **********************************************************************
 CCSD(T) calculation                                                    
 
 
 OpenMP parallel version is running.
 Number of CPU cores:   1
 Allocation of   99.0 Mbytes of memory...
 Number of spinorbitals: 120
 Number of alpha electrons:  4
 Number of beta  electrons:  3
 Spin multiplicity: 2
 z-component of spin:  0.5
 Spatial symmetry: 3
 Convergence criterion:  1.0E-05
 Construction of occupation graphs...
 Number of 0-fold excitations: 1
 Number of 1-fold excitations: 135
 Number of 2-fold excitations: 13778
 Total number of determinants: 13914
 Calculation of coupling coefficients...
 Initial cluster amplitudes are generated.
 Length of intermediate file (Mbytes):      38.1
 Reading integral list from unit 55...
 Sorting integrals...
 Sorting integrals...
 Sorting integrals...
 Sorting integrals...
 Calculation of MP denominators...
 
 Starting CC iteration...
 ======================================================================
 Norm of residual vector:     0.93067479
 CPU time [min]:     0.118                   Wall time [min]:     0.118
 
 Iteration  1  CC energy:   -78.79728890  Energy decrease:   0.25104007
 ======================================================================
 Norm of residual vector:     0.19708581
 CPU time [min]:     0.143                   Wall time [min]:     0.144
 
 Iteration  2  CC energy:   -78.78859652  Energy decrease:   0.00869237
 ======================================================================
 Norm of residual vector:     0.08748870
 CPU time [min]:     0.169                   Wall time [min]:     0.169
 
 Iteration  3  CC energy:   -78.80130621  Energy decrease:   0.01270968
 ======================================================================
 Norm of residual vector:     0.04029860
 CPU time [min]:     0.193                   Wall time [min]:     0.194
 
 Iteration  4  CC energy:   -78.80773036  Energy decrease:   0.00642415
 ======================================================================
 Norm of residual vector:     0.02400881
 CPU time [min]:     0.218                   Wall time [min]:     0.219
 
 Iteration  5  CC energy:   -78.80887388  Energy decrease:   0.00114352
 ======================================================================
 Norm of residual vector:     0.01373784
 CPU time [min]:     0.243                   Wall time [min]:     0.244
 
 Iteration  6  CC energy:   -78.80956012  Energy decrease:   0.00068624
 ======================================================================
 Norm of residual vector:     0.00834937
 CPU time [min]:     0.269                   Wall time [min]:     0.269
 
 Iteration  7  CC energy:   -78.81041358  Energy decrease:   0.00085346
 ======================================================================
 Norm of residual vector:     0.00466526
 CPU time [min]:     0.294                   Wall time [min]:     0.294
 
 Iteration  8  CC energy:   -78.81040601  Energy decrease:   0.00000757
 ======================================================================
 Norm of residual vector:     0.00263409
 CPU time [min]:     0.319                   Wall time [min]:     0.320
 
 Iteration  9  CC energy:   -78.81066130  Energy decrease:   0.00025528
 ======================================================================
 Norm of residual vector:     0.00188352
 CPU time [min]:     0.344                   Wall time [min]:     0.345
 
 Iteration 10  CC energy:   -78.81073470  Energy decrease:   0.00007340
 ======================================================================
 Norm of residual vector:     0.00140408
 CPU time [min]:     0.369                   Wall time [min]:     0.370
 
 Iteration 11  CC energy:   -78.81077123  Energy decrease:   0.00003653
 ======================================================================
 Norm of residual vector:     0.00096189
 CPU time [min]:     0.395                   Wall time [min]:     0.395
 
 Iteration 12  CC energy:   -78.81088179  Energy decrease:   0.00011057
 ======================================================================
 Norm of residual vector:     0.00072056
 CPU time [min]:     0.420                   Wall time [min]:     0.421
 
 Iteration 13  CC energy:   -78.81087433  Energy decrease:   0.00000747
 ======================================================================
 Norm of residual vector:     0.00041130
 CPU time [min]:     0.445                   Wall time [min]:     0.446
 
 Iteration 14  CC energy:   -78.81086886  Energy decrease:   0.00000547
 ======================================================================
 Norm of residual vector:     0.00019421
 CPU time [min]:     0.471                   Wall time [min]:     0.471
 
 Iteration 15  CC energy:   -78.81088147  Energy decrease:   0.00001262
 ======================================================================
 Norm of residual vector:     0.00008966
 CPU time [min]:     0.496                   Wall time [min]:     0.497
 
 Iteration 16  CC energy:   -78.81088049  Energy decrease:   0.00000098
 ======================================================================
 Norm of residual vector:     0.00004119
 CPU time [min]:     0.522                   Wall time [min]:     0.523
 
 Iteration 17  CC energy:   -78.81087884  Energy decrease:   0.00000165
 ======================================================================
 Norm of residual vector:     0.00001594
 CPU time [min]:     0.547                   Wall time [min]:     0.548
 
 Iteration 18  CC energy:   -78.81088013  Energy decrease:   0.00000129
 ======================================================================
 Norm of residual vector:     0.00000644
 CPU time [min]:     0.573                   Wall time [min]:     0.574
 
 Iteration 19  CC energy:   -78.81087991  Energy decrease:   0.00000022
 ======================================================================
 
 Iteration has converged in 19 steps.
 
 Final results:
 Total CCSD energy [au]:             -78.810879909276
 
 Perturbative corrections are calculated...
 ======================================================================
 Spin case  1   Alpha:  0   Beta:  3
 Number of excitations:        7268
 CPU time [min]:     0.578                   Wall time [min]:     0.579
 ======================================================================
 Spin case  2   Alpha:  1   Beta:  2
 Number of excitations:        269892
 CPU time [min]:     0.620                   Wall time [min]:     0.621
 ======================================================================
 Spin case  3   Alpha:  2   Beta:  1
 Number of excitations:        395040
 CPU time [min]:     0.675                   Wall time [min]:     0.676
 ======================================================================
 Spin case  4   Alpha:  3   Beta:  0
 Number of excitations:        27246
 CPU time [min]:     0.682                   Wall time [min]:     0.683
 ======================================================================
 Number of 3-fold excitations: 699446
 
 
 CPU time [min]:     0.682                   Wall time [min]:     0.683
 
 Total CCSD[T] energy [au]:          -78.843471014725
 Total CCSD(T) energy [au]:          -78.835293083747
 
 Dominant cluster amplitudes
 Printing threshold:  1.00E-02
 
    1.000000  Reference determinant                                     
    0.032668  3b -> 7b                                                  
   -0.010356  3b -> 28b                                                 
   -0.303107  4b -> 7b                                                  
    0.040029  4b -> 10b                                                 
    0.012344  4b -> 17b                                                 
   -0.019648  4b -> 23b                                                 
   -0.017267  4b -> 24b                                                 
   -0.032150  5b -> 9b                                                  
   -0.018906  5b -> 13b                                                 
   -0.010218  5b -> 19b                                                 
   -0.013036  5b -> 21b                                                 
    0.010855  5b -> 26b                                                 
    0.010555  5b -> 31b                                                 
    0.011254  5b -> 43b                                                 
   -0.032085  3a -> 7a                                                  
   -0.010987  3a -> 16a                                                 
   -0.013142  3a -> 17a                                                 
    0.013417  3a -> 24a                                                 
   -0.013360  3a -> 28a                                                 
    0.101496  4a -> 7a                                                  
    0.014874  4a -> 10a                                                 
    0.012686  4a -> 14a                                                 
   -0.010162  4a -> 22a                                                 
    0.010307  4a -> 23a                                                 
    0.015283  4a -> 24a                                                 
    0.031627  5a -> 9a                                                  
   -0.025321  5a -> 19a                                                 
    0.019041  5a -> 21a                                                 
   -0.012758  5a -> 43a                                                 
   -0.012688  6a -> 8a                                                  
   -0.011662  6a -> 18a                                                 
   -0.012972  3b 4b -> 6b 8b                                            
    0.013627  3b 4b -> 7b 17b                                           
   -0.012772  3b 4b -> 7b 24b                                           
   -0.040490  4b 5b -> 7b 9b                                            
    0.012784  4b 5b -> 7b 19b                                           
    0.015178  3a 3b -> 7a 7b                                            
   -0.010176  3a 3b -> 14a 7b                                           
    0.013923  3a 3b -> 24a 24b                                          
    0.017181  4a 3b -> 7a 7b                                            
    0.010518  4a 3b -> 27a 7b                                           
    0.010486  4a 3b -> 32a 7b                                           
    0.018693  3a 4b -> 7a 7b                                            
   -0.011633  3a 4b -> 11a 7b                                           
   -0.010202  3a 4b -> 22a 7b                                           
    0.182441  4a 4b -> 7a 7b                                            
    0.030505  4a 4b -> 10a 7b                                           
   -0.033629  4a 4b -> 14a 7b                                           
    0.016001  4a 4b -> 17a 7b                                           
    0.025843  4a 4b -> 22a 7b                                           
   -0.031106  4a 4b -> 24a 7b                                           
    0.010452  4a 4b -> 44a 7b                                           
   -0.030029  4a 4b -> 7a 10b                                           
    0.028262  4a 4b -> 7a 14b                                           
   -0.010172  4a 4b -> 14a 14b                                          
    0.010490  4a 4b -> 7a 17b                                           
   -0.020286  4a 4b -> 7a 22b                                           
   -0.023219  4a 4b -> 7a 24b                                           
    0.011295  4a 4b -> 24a 24b                                          
    0.010829  4a 4b -> 44a 44b                                          
    0.050443  5a 5b -> 7a 7b                                            
   -0.012383  5a 5b -> 14a 7b                                           
    0.010586  5a 5b -> 16a 7b                                           
    0.013895  5a 5b -> 7a 14b                                           
    0.012919  5a 5b -> 28a 28b                                          
   -0.042410  4a 4b -> 9a 9b                                            
   -0.015043  4a 4b -> 13a 9b                                           
   -0.012414  4a 4b -> 21a 9b                                           
   -0.010736  4a 4b -> 31a 9b                                           
   -0.015461  4a 4b -> 9a 13b                                           
    0.011310  4a 4b -> 9a 21b                                           
   -0.097037  5a 5b -> 9a 9b                                            
   -0.025816  5a 5b -> 13a 9b                                           
    0.032212  5a 5b -> 19a 9b                                           
   -0.025533  5a 5b -> 21a 9b                                           
    0.010590  5a 5b -> 43a 9b                                           
   -0.028026  5a 5b -> 9a 13b                                           
   -0.013533  5a 5b -> 13a 13b                                          
    0.030502  5a 5b -> 9a 19b                                           
   -0.020105  5a 5b -> 19a 19b                                          
    0.026324  5a 5b -> 9a 21b                                           
    0.013347  5a 5b -> 21a 21b                                          
   -0.010815  5a 5b -> 31a 31b                                          
   -0.010107  5a 5b -> 9a 43b                                           
   -0.010267  3a 3b -> 8a 6b                                            
    0.014418  3a 3b -> 8a 8b                                            
    0.029316  4a 3b -> 8a 6b                                            
    0.011981  4a 3b -> 12a 6b                                           
   -0.012295  4a 3b -> 20a 6b                                           
    0.011421  4a 3b -> 30a 6b                                           
   -0.015038  4a 3b -> 8a 8b                                            
   -0.010510  4a 3b -> 30a 8b                                           
    0.019878  3a 4b -> 8a 6b                                            
    0.032960  4a 4b -> 8a 8b                                            
   -0.010784  4a 4b -> 20a 8b                                           
    0.011578  4a 4b -> 30a 8b                                           
   -0.019019  4a 4b -> 8a 12b                                           
   -0.015515  4a 4b -> 8a 20b                                           
    0.012930  5a 5b -> 8a 8b                                            
   -0.012859  5a 5b -> 29a 29b                                          
   -0.011046  3a 5b -> 11a 9b                                           
    0.015562  3a 5b -> 17a 9b                                           
   -0.015494  3a 5b -> 24a 9b                                           
   -0.013749  3a 5b -> 7a 31b                                           
    0.076683  4a 5b -> 7a 9b                                            
    0.014877  4a 5b -> 10a 9b                                           
   -0.017908  4a 5b -> 14a 9b                                           
    0.010802  4a 5b -> 22a 9b                                           
   -0.016703  4a 5b -> 24a 9b                                           
    0.020022  4a 5b -> 7a 13b                                           
   -0.021074  4a 5b -> 7a 19b                                           
   -0.015136  4a 5b -> 7a 21b                                           
    0.010675  5a 3b -> 17a 9b                                           
   -0.011323  5a 3b -> 28a 9b                                           
    0.052690  5a 4b -> 7a 9b                                            
   -0.011621  5a 4b -> 14a 9b                                           
    0.018091  5a 4b -> 16a 9b                                           
    0.011847  5a 4b -> 28a 9b                                           
    0.015212  5a 4b -> 7a 13b                                           
   -0.010819  5a 4b -> 7a 19b                                           
   -0.010784  3a 5b -> 9a 17b                                           
   -0.050813  4a 5b -> 9a 7b                                            
   -0.012962  4a 5b -> 13a 7b                                           
    0.011551  4a 5b -> 19a 7b                                           
   -0.011095  4a 5b -> 21a 7b                                           
   -0.014999  4a 5b -> 9a 14b                                           
    0.012677  4a 5b -> 9a 16b                                           
   -0.010029  4a 5b -> 9a 28b                                           
    0.017872  5a 3b -> 31a 7b                                           
   -0.014734  5a 3b -> 9a 17b                                           
    0.015014  5a 3b -> 9a 24b                                           
   -0.094617  5a 4b -> 9a 7b                                            
   -0.023090  5a 4b -> 13a 7b                                           
    0.025687  5a 4b -> 19a 7b                                           
   -0.018613  5a 4b -> 21a 7b                                           
    0.018272  5a 4b -> 9a 10b                                           
   -0.017822  5a 4b -> 9a 14b                                           
    0.010664  5a 4b -> 9a 22b                                           
    0.013823  5a 4b -> 9a 24b                                           
    0.012875  4a 5b -> 8a 15b                                           
    0.010380  4a 5b -> 8a 29b                                           
   -0.013950  5a 3b -> 15a 6b                                           
   -0.017745  5a 3b -> 29a 6b                                           
    0.014425  5a 3b -> 29a 8b                                           
   -0.011125  5a 4b -> 29a 8b                                           
    0.012273  6a 3b -> 16a 6b                                           
    0.017384  6a 3b -> 28a 6b                                           
   -0.011012  6a 3b -> 17a 8b                                           
   -0.013831  6a 3b -> 28a 8b                                           
    0.022535  6a 4b -> 7a 6b                                            
   -0.012607  6a 4b -> 17a 6b                                           
   -0.051755  6a 4b -> 7a 8b                                            
    0.011536  6a 4b -> 14a 8b                                           
    0.010943  6a 4b -> 28a 8b                                           
    0.016882  6a 4b -> 7a 12b                                           
    0.013274  6a 4b -> 7a 18b                                           
    0.018381  6a 4b -> 7a 20b                                           
    0.017033  6a 3b -> 30a 7b                                           
   -0.014535  6a 3b -> 8a 17b                                           
    0.014916  6a 3b -> 8a 24b                                           
   -0.084900  6a 4b -> 8a 7b                                            
   -0.019449  6a 4b -> 12a 7b                                           
    0.025216  6a 4b -> 18a 7b                                           
    0.015465  6a 4b -> 20a 7b                                           
    0.016609  6a 4b -> 8a 10b                                           
   -0.017565  6a 4b -> 8a 14b                                           
    0.010890  6a 4b -> 8a 22b                                           
    0.014916  6a 4b -> 8a 24b                                           
   -0.010284  6a 3b -> 29a 9b                                           
    0.012703  6a 4b -> 15a 9b                                           
    0.011549  6a 4b -> 29a 9b                                           
   -0.019745  6a 5b -> 9a 6b                                            
    0.027968  6a 5b -> 9a 8b                                            
   -0.012113  6a 5b -> 9a 20b                                           
   -0.057895  6a 5b -> 8a 9b                                            
   -0.014561  6a 5b -> 12a 9b                                           
    0.021256  6a 5b -> 18a 9b                                           
    0.012447  6a 5b -> 20a 9b                                           
   -0.016704  6a 5b -> 8a 13b                                           
    0.019521  6a 5b -> 8a 19b                                           
   -0.014823  6a 5b -> 18a 19b                                          
    0.016029  6a 5b -> 8a 21b                                           
    0.011795  3a 4a -> 7a 17a                                           
   -0.010703  3a 4a -> 7a 24a                                           
    0.029644  4a 5a -> 7a 9a                                            
   -0.012077  4a 5a -> 7a 19a                                           
    0.010450  4a 5a -> 9a 24a                                           
    0.029686  4a 6a -> 7a 8a                                            
   -0.013612  4a 6a -> 7a 18a                                           
   -0.010257  4a 6a -> 8a 22a                                           
    0.011070  4a 6a -> 8a 24a                                           
    0.035787  5a 6a -> 8a 9a                                            
    0.014180  5a 6a -> 9a 18a                                           
   -0.013677  5a 6a -> 8a 19a                                           
    0.011640  5a 6a -> 18a 19a                                          
    0.010062  5a 6a -> 8a 21a                                           
   -0.014643  5a 6a -> 28a 29a                                          

 ************************ 2021-07-31 17:39:25 *************************
 Executing goldstone...

 Generation of CC equations in terms of H and T...
 Generation of antisymmetrized Goldstone diagrams...
 Number of diagrams in T^1 equations:    15
 Number of diagrams in T^2 equations:    38
 Number of diagrams in T^3 equations:    50
 Number of diagrams in T^4 equations:     5
 Translation of diagrams to factorized equations...
 Optimizing intermediate calculation...
 Number of floating-point operations per iteration step:   9.2107E+10
 Probable CPU time per iteration step (hours):      0.92
 Required memory (Mbytes):    1343.0
 Number of intermediates:                                  80
 Number of intermediates to be stored:                     32
 Length of intermediate file (Mbytes):      57.7

 ************************ 2021-07-31 17:39:26 *************************
 Executing xmrcc...

 **********************************************************************
 CC(3)(4) calculation 
 
 
 Allocation of1343.0 Mbytes of memory...
 Number of spinorbitals:                   120
 Number of alpha electrons:                        4
 Number of beta electrons:                         3
 Spin multiplicity:                     2
 z-component of spin:  0.5
 Spatial symmetry:                      3
 Convergence criterion:  1.0E-05
 Construction of occupation graphs...
 Number of                     0 -fold excitations:                      1
 Number of                     1 -fold excitations:                    135
 Number of                     2 -fold excitations:                  13778
 Number of                     3 -fold excitations:                 699446
 Total number of configurations:                 713360
 Calculation of coupling coefficients...
 Length of intermediate file (Mbytes):      44.6
 
 ======================================================================
 
 Spin case  1   Alpha:  1   Beta:  3
 Number of excitations:                1636148
 Spin case  2   Alpha:  2   Beta:  2
 Number of excitations:               11060520
 Spin case  3   Alpha:  3   Beta:  1
 Number of excitations:                4723530
 Spin case  4   Alpha:  4   Beta:  0
 Number of excitations:                  91703
 Number of                     4 -fold excitations:               17511901
 
 Memory requirements /Mbyte/: 
               Minimal        Optimal
 Real*8:         86.2993        98.9907
 Integer:        11.4500
 Total:          97.7493       110.4407
 

 ************************ 2021-07-31 17:39:27 *************************
 Executing mrcc...

 **********************************************************************
 CCSDT(Q) calculation                                                   
 
 
 OpenMP parallel version is running.
 Number of CPU cores:   1
 Allocation of   99.0 Mbytes of memory...
 Number of spinorbitals: 120
 Number of alpha electrons:  4
 Number of beta  electrons:  3
 Spin multiplicity: 2
 z-component of spin:  0.5
 Spatial symmetry: 3
 Convergence criterion:  1.0E-05
 Construction of occupation graphs...
 Number of 0-fold excitations: 1
 Number of 1-fold excitations: 135
 Number of 2-fold excitations: 13778
 Number of 3-fold excitations: 699446
 Total number of determinants: 713360
 Calculation of coupling coefficients...
 Initial cluster amplitudes are read from unit 16.
 Length of intermediate file (Mbytes):      44.6
 Reading integral list from unit 55...
 Sorting integrals...
 Sorting integrals...
 Sorting integrals...
 Sorting integrals...
 Calculation of MP denominators...
 
 Starting CC iteration...
 ======================================================================
 Norm of residual vector:     0.31404696
 CPU time [min]:     0.227                   Wall time [min]:     0.228
 
 Iteration  1  CC energy:   -78.81088001  Energy decrease:   0.00000010
 ======================================================================
 Norm of residual vector:     0.12774932
 CPU time [min]:     0.362                   Wall time [min]:     0.363
 
 Iteration  2  CC energy:   -78.82371070  Energy decrease:   0.01283070
 ======================================================================
 Norm of residual vector:     0.05350654
 CPU time [min]:     0.496                   Wall time [min]:     0.498
 
 Iteration  3  CC energy:   -78.82961951  Energy decrease:   0.00590880
 ======================================================================
 Norm of residual vector:     0.02661729
 CPU time [min]:     0.631                   Wall time [min]:     0.633
 
 Iteration  4  CC energy:   -78.83168140  Energy decrease:   0.00206190
 ======================================================================
 Norm of residual vector:     0.01513708
 CPU time [min]:     0.767                   Wall time [min]:     0.770
 
 Iteration  5  CC energy:   -78.83348252  Energy decrease:   0.00180112
 ======================================================================
 Norm of residual vector:     0.00978896
 CPU time [min]:     0.905                   Wall time [min]:     0.908
 
 Iteration  6  CC energy:   -78.83433961  Energy decrease:   0.00085709
 ======================================================================
 Norm of residual vector:     0.00727464
 CPU time [min]:     1.042                   Wall time [min]:     1.045
 
 Iteration  7  CC energy:   -78.83471012  Energy decrease:   0.00037051
 ======================================================================
 Norm of residual vector:     0.00500056
 CPU time [min]:     1.180                   Wall time [min]:     1.183
 
 Iteration  8  CC energy:   -78.83500641  Energy decrease:   0.00029629
 ======================================================================
 Norm of residual vector:     0.00366969
 CPU time [min]:     1.321                   Wall time [min]:     1.324
 
 Iteration  9  CC energy:   -78.83517139  Energy decrease:   0.00016498
 ======================================================================
 Norm of residual vector:     0.00294714
 CPU time [min]:     1.462                   Wall time [min]:     1.466
 
 Iteration 10  CC energy:   -78.83515400  Energy decrease:   0.00001739
 ======================================================================
 Norm of residual vector:     0.00227287
 CPU time [min]:     1.602                   Wall time [min]:     1.606
 
 Iteration 11  CC energy:   -78.83519765  Energy decrease:   0.00004364
 ======================================================================
 Norm of residual vector:     0.00167712
 CPU time [min]:     1.744                   Wall time [min]:     1.748
 
 Iteration 12  CC energy:   -78.83532227  Energy decrease:   0.00012463
 ======================================================================
 Norm of residual vector:     0.00121773
 CPU time [min]:     1.889                   Wall time [min]:     1.893
 
 Iteration 13  CC energy:   -78.83530419  Energy decrease:   0.00001809
 ======================================================================
 Norm of residual vector:     0.00086569
 CPU time [min]:     2.032                   Wall time [min]:     2.036
 
 Iteration 14  CC energy:   -78.83532692  Energy decrease:   0.00002273
 ======================================================================
 Norm of residual vector:     0.00058461
 CPU time [min]:     2.175                   Wall time [min]:     2.180
 
 Iteration 15  CC energy:   -78.83533309  Energy decrease:   0.00000617
 ======================================================================
 Norm of residual vector:     0.00038787
 CPU time [min]:     2.321                   Wall time [min]:     2.326
 
 Iteration 16  CC energy:   -78.83531151  Energy decrease:   0.00002158
 ======================================================================
 Norm of residual vector:     0.00023265
 CPU time [min]:     2.469                   Wall time [min]:     2.474
 
 Iteration 17  CC energy:   -78.83530600  Energy decrease:   0.00000552
 ======================================================================
 Norm of residual vector:     0.00011561
 CPU time [min]:     2.615                   Wall time [min]:     2.620
 
 Iteration 18  CC energy:   -78.83530399  Energy decrease:   0.00000200
 ======================================================================
 Norm of residual vector:     0.00006110
 CPU time [min]:     2.762                   Wall time [min]:     2.768
 
 Iteration 19  CC energy:   -78.83530297  Energy decrease:   0.00000103
 ======================================================================
 Norm of residual vector:     0.00003230
 CPU time [min]:     2.912                   Wall time [min]:     2.918
 
 Iteration 20  CC energy:   -78.83530296  Energy decrease:   0.00000001
 ======================================================================
 Norm of residual vector:     0.00001703
 CPU time [min]:     3.060                   Wall time [min]:     3.066
 
 Iteration 21  CC energy:   -78.83530298  Energy decrease:   0.00000002
 ======================================================================
 Norm of residual vector:     0.00000887
 CPU time [min]:     3.191                   Wall time [min]:     3.197
 
 Iteration 22  CC energy:   -78.83530282  Energy decrease:   0.00000016
 ======================================================================
 
 Iteration has converged in 22 steps.
 
 Final results:
 Total CCSDT energy [au]:            -78.835302824081
 
 Perturbative corrections are calculated...
 ======================================================================
 Spin case  1   Alpha:  1   Beta:  3
 Number of excitations:        1636148
 CPU time [min]:     6.688                   Wall time [min]:     6.695
 ======================================================================
 Spin case  2   Alpha:  2   Beta:  2
 Number of excitations:        11060520
 CPU time [min]:    15.349                   Wall time [min]:    15.359
 ======================================================================
 Spin case  3   Alpha:  3   Beta:  1
 Number of excitations:        4723530
 CPU time [min]:    20.463                   Wall time [min]:    20.474
 ======================================================================
 Spin case  4   Alpha:  4   Beta:  0
 Number of excitations:        91703
 CPU time [min]:    20.817                   Wall time [min]:    20.828
 ======================================================================
 Number of 4-fold excitations: 17511901
 
 T_2^+ contribution:               0.003009703898
 T_3^+ contribution:              -0.006772790785
 T_1^+ * T_2^+ contribution:       0.004689125264
 T_1^+ * <ab||ij> contribution:    0.002694047113
 T_2^+ * f_ai contribution:        0.000007566305
 
 CPU time [min]:    20.825                   Wall time [min]:    20.837
 
 Total CCSDT[Q] energy [au]:         -78.832293120183
 Total CCSDT(Q)/A energy [au]:       -78.834376785705
 Total CCSDT(Q)/B energy [au]:       -78.836364297551
 
 Dominant cluster amplitudes
 Printing threshold:  1.00E-02
 
    1.000000  Reference determinant                                     
    0.039972  3b -> 7b                                                  
   -0.010412  3b -> 28b                                                 
   -0.319214  4b -> 7b                                                  
    0.043689  4b -> 10b                                                 
    0.015692  4b -> 17b                                                 
   -0.022229  4b -> 23b                                                 
   -0.019944  4b -> 24b                                                 
    0.010073  4b -> 27b                                                 
   -0.018812  5b -> 9b                                                  
   -0.015188  5b -> 13b                                                 
   -0.010790  5b -> 19b                                                 
   -0.015175  5b -> 21b                                                 
    0.010455  5b -> 26b                                                 
    0.011231  5b -> 31b                                                 
    0.010916  5b -> 43b                                                 
   -0.039706  3a -> 7a                                                  
   -0.010955  3a -> 16a                                                 
   -0.013902  3a -> 17a                                                 
    0.013728  3a -> 24a                                                 
   -0.013486  3a -> 28a                                                 
    0.155955  4a -> 7a                                                  
    0.022354  4a -> 10a                                                 
    0.012133  4a -> 14a                                                 
   -0.010955  4a -> 22a                                                 
    0.014208  4a -> 23a                                                 
    0.016204  4a -> 24a                                                 
    0.038419  5a -> 9a                                                  
   -0.025028  5a -> 19a                                                 
    0.020587  5a -> 21a                                                 
   -0.012290  5a -> 43a                                                 
   -0.013697  6a -> 18a                                                 
   -0.011595  6a -> 20a                                                 
   -0.015089  3b 4b -> 6b 8b                                            
    0.014578  3b 4b -> 7b 17b                                           
   -0.012836  3b 4b -> 7b 24b                                           
   -0.051709  4b 5b -> 7b 9b                                            
   -0.012775  4b 5b -> 9b 10b                                           
   -0.014010  4b 5b -> 7b 13b                                           
    0.011604  4b 5b -> 9b 16b                                           
    0.012285  4b 5b -> 7b 19b                                           
    0.013656  3a 3b -> 7a 7b                                            
   -0.010745  3a 3b -> 14a 7b                                           
    0.010119  3a 3b -> 7a 14b                                           
    0.014527  3a 3b -> 24a 24b                                          
    0.013137  4a 3b -> 7a 7b                                            
   -0.010952  4a 3b -> 22a 7b                                           
    0.011001  4a 3b -> 24a 7b                                           
    0.011357  4a 3b -> 27a 7b                                           
    0.010487  4a 3b -> 32a 7b                                           
    0.010176  4a 3b -> 7a 11b                                           
    0.015376  3a 4b -> 7a 7b                                            
   -0.011939  3a 4b -> 11a 7b                                           
   -0.010403  3a 4b -> 22a 7b                                           
    0.274397  4a 4b -> 7a 7b                                            
    0.042897  4a 4b -> 10a 7b                                           
   -0.037100  4a 4b -> 14a 7b                                           
    0.010582  4a 4b -> 16a 7b                                           
    0.016634  4a 4b -> 17a 7b                                           
    0.027338  4a 4b -> 22a 7b                                           
    0.014920  4a 4b -> 23a 7b                                           
   -0.030953  4a 4b -> 24a 7b                                           
   -0.043356  4a 4b -> 7a 10b                                           
    0.033970  4a 4b -> 7a 14b                                           
    0.011195  4a 4b -> 7a 17b                                           
   -0.023330  4a 4b -> 7a 22b                                           
    0.015297  4a 4b -> 7a 23b                                           
   -0.024175  4a 4b -> 7a 24b                                           
    0.010575  4a 4b -> 24a 24b                                          
    0.010539  4a 4b -> 44a 44b                                          
    0.048105  5a 5b -> 7a 7b                                            
   -0.011567  5a 5b -> 14a 7b                                           
    0.010969  5a 5b -> 16a 7b                                           
    0.013878  5a 5b -> 7a 14b                                           
    0.013292  5a 5b -> 28a 28b                                          
   -0.043231  4a 4b -> 9a 9b                                            
   -0.015683  4a 4b -> 13a 9b                                           
   -0.013021  4a 4b -> 21a 9b                                           
   -0.010705  4a 4b -> 31a 9b                                           
   -0.016155  4a 4b -> 9a 13b                                           
    0.012063  4a 4b -> 9a 21b                                           
   -0.105969  5a 5b -> 9a 9b                                            
   -0.028692  5a 5b -> 13a 9b                                           
    0.033152  5a 5b -> 19a 9b                                           
   -0.025995  5a 5b -> 21a 9b                                           
    0.010515  5a 5b -> 43a 9b                                           
   -0.031074  5a 5b -> 9a 13b                                           
   -0.015074  5a 5b -> 13a 13b                                          
    0.031714  5a 5b -> 9a 19b                                           
   -0.021157  5a 5b -> 19a 19b                                          
    0.027138  5a 5b -> 9a 21b                                           
    0.013681  5a 5b -> 21a 21b                                          
   -0.011195  5a 5b -> 31a 31b                                          
   -0.010154  5a 5b -> 9a 43b                                           
   -0.011855  3a 3b -> 8a 6b                                            
    0.014725  3a 3b -> 8a 8b                                            
    0.034660  4a 3b -> 8a 6b                                            
    0.013779  4a 3b -> 12a 6b                                           
   -0.012565  4a 3b -> 20a 6b                                           
    0.011007  4a 3b -> 30a 6b                                           
   -0.016717  4a 3b -> 8a 8b                                            
   -0.010449  4a 3b -> 30a 8b                                           
    0.021772  3a 4b -> 8a 6b                                            
   -0.010313  3a 4b -> 20a 6b                                           
    0.012685  4a 4b -> 8a 6b                                            
    0.035278  4a 4b -> 8a 8b                                            
    0.010458  4a 4b -> 12a 8b                                           
   -0.011117  4a 4b -> 20a 8b                                           
    0.011431  4a 4b -> 30a 8b                                           
   -0.020995  4a 4b -> 8a 12b                                           
   -0.016733  4a 4b -> 8a 20b                                           
   -0.012698  5a 5b -> 8a 6b                                            
    0.012891  5a 5b -> 8a 8b                                            
   -0.013191  5a 5b -> 29a 29b                                          
   -0.011259  3a 5b -> 11a 9b                                           
    0.016042  3a 5b -> 17a 9b                                           
   -0.015850  3a 5b -> 24a 9b                                           
   -0.015243  3a 5b -> 7a 31b                                           
    0.101863  4a 5b -> 7a 9b                                            
    0.019648  4a 5b -> 10a 9b                                           
   -0.017302  4a 5b -> 14a 9b                                           
    0.010642  4a 5b -> 22a 9b                                           
   -0.015050  4a 5b -> 24a 9b                                           
    0.027396  4a 5b -> 7a 13b                                           
   -0.023381  4a 5b -> 7a 19b                                           
   -0.017313  4a 5b -> 7a 21b                                           
    0.011158  5a 3b -> 17a 9b                                           
   -0.011631  5a 3b -> 28a 9b                                           
    0.067951  5a 4b -> 7a 9b                                            
   -0.012677  5a 4b -> 14a 9b                                           
    0.020018  5a 4b -> 16a 9b                                           
    0.012529  5a 4b -> 28a 9b                                           
    0.018805  5a 4b -> 7a 13b                                           
   -0.013520  5a 4b -> 7a 19b                                           
   -0.013621  5a 4b -> 7a 21b                                           
   -0.011436  3a 5b -> 9a 17b                                           
   -0.064776  4a 5b -> 9a 7b                                            
   -0.016221  4a 5b -> 13a 7b                                           
    0.013529  4a 5b -> 19a 7b                                           
   -0.014103  4a 5b -> 21a 7b                                           
    0.010156  4a 5b -> 9a 10b                                           
   -0.016946  4a 5b -> 9a 14b                                           
    0.014512  4a 5b -> 9a 16b                                           
   -0.010632  4a 5b -> 9a 28b                                           
    0.010739  5a 3b -> 21a 7b                                           
    0.018679  5a 3b -> 31a 7b                                           
   -0.015558  5a 3b -> 9a 17b                                           
    0.015807  5a 3b -> 9a 24b                                           
   -0.117140  5a 4b -> 9a 7b                                            
   -0.029598  5a 4b -> 13a 7b                                           
    0.026751  5a 4b -> 19a 7b                                           
   -0.020007  5a 4b -> 21a 7b                                           
    0.022918  5a 4b -> 9a 10b                                           
   -0.017215  5a 4b -> 9a 14b                                           
    0.010445  5a 4b -> 9a 22b                                           
   -0.011217  5a 4b -> 9a 23b                                           
    0.012287  5a 4b -> 9a 24b                                           
    0.014979  4a 5b -> 8a 15b                                           
    0.010952  4a 5b -> 8a 29b                                           
   -0.015232  5a 3b -> 15a 6b                                           
   -0.018550  5a 3b -> 29a 6b                                           
    0.015150  5a 3b -> 29a 8b                                           
   -0.010547  5a 4b -> 15a 6b                                           
   -0.011577  5a 4b -> 29a 8b                                           
    0.013481  6a 3b -> 16a 6b                                           
    0.017929  6a 3b -> 28a 6b                                           
   -0.012070  6a 3b -> 17a 8b                                           
   -0.014428  6a 3b -> 28a 8b                                           
    0.087808  6a 4b -> 7a 6b                                            
    0.010548  6a 4b -> 16a 6b                                           
   -0.013785  6a 4b -> 17a 6b                                           
   -0.102023  6a 4b -> 7a 8b                                            
   -0.013206  6a 4b -> 10a 8b                                           
    0.014105  6a 4b -> 14a 8b                                           
    0.011246  6a 4b -> 28a 8b                                           
    0.024178  6a 4b -> 7a 12b                                           
    0.027130  6a 4b -> 7a 18b                                           
    0.033968  6a 4b -> 7a 20b                                           
   -0.011558  6a 3b -> 20a 7b                                           
    0.018495  6a 3b -> 30a 7b                                           
   -0.015108  6a 3b -> 8a 17b                                           
    0.015406  6a 3b -> 8a 24b                                           
   -0.109066  6a 4b -> 8a 7b                                            
   -0.026044  6a 4b -> 12a 7b                                           
    0.026577  6a 4b -> 18a 7b                                           
    0.017080  6a 4b -> 20a 7b                                           
    0.021287  6a 4b -> 8a 10b                                           
   -0.017803  6a 4b -> 8a 14b                                           
    0.010290  6a 4b -> 8a 22b                                           
   -0.010282  6a 4b -> 8a 23b                                           
    0.013474  6a 4b -> 8a 24b                                           
   -0.010865  6a 3b -> 29a 9b                                           
    0.014199  6a 4b -> 15a 9b                                           
    0.012332  6a 4b -> 29a 9b                                           
   -0.036188  6a 5b -> 9a 6b                                            
    0.039484  6a 5b -> 9a 8b                                            
   -0.012578  6a 5b -> 9a 18b                                           
   -0.015843  6a 5b -> 9a 20b                                           
   -0.065979  6a 5b -> 8a 9b                                            
   -0.017152  6a 5b -> 12a 9b                                           
    0.022098  6a 5b -> 18a 9b                                           
    0.012675  6a 5b -> 20a 9b                                           
   -0.019937  6a 5b -> 8a 13b                                           
   -0.010448  6a 5b -> 12a 13b                                          
    0.020047  6a 5b -> 8a 19b                                           
   -0.015658  6a 5b -> 18a 19b                                          
    0.016256  6a 5b -> 8a 21b                                           
    0.013855  3a 4a -> 7a 17a                                           
   -0.012175  3a 4a -> 7a 24a                                           
    0.041853  4a 5a -> 7a 9a                                            
   -0.010961  4a 5a -> 9a 10a                                           
   -0.012564  4a 5a -> 7a 19a                                           
    0.044723  4a 6a -> 7a 8a                                            
   -0.011206  4a 6a -> 8a 10a                                           
   -0.015438  4a 6a -> 7a 18a                                           
   -0.010480  4a 6a -> 8a 22a                                           
    0.042504  5a 6a -> 8a 9a                                            
   -0.011340  5a 6a -> 9a 12a                                           
    0.012233  5a 6a -> 8a 13a                                           
    0.010411  5a 6a -> 15a 16a                                          
    0.015104  5a 6a -> 9a 18a                                           
   -0.014041  5a 6a -> 8a 19a                                           
    0.012458  5a 6a -> 18a 19a                                          
   -0.015231  5a 6a -> 28a 29a                                          
   -0.014832  5a 4b 5b -> 9a 7b 9b                                      
    0.048335  4a 4b 5b -> 7a 7b 9b                                      
    0.013118  4a 4b 5b -> 7a 7b 13b                                     
   -0.013193  6a 4b 5b -> 8a 7b 9b                                      
    0.012890  4a 5a 5b -> 7a 9a 9b                                      
    0.046527  4a 5a 4b -> 7a 9a 7b                                      
    0.011684  4a 5a 4b -> 7a 13a 7b                                     
    0.049806  4a 6a 4b -> 7a 8a 7b                                      
    0.011593  4a 6a 4b -> 7a 12a 7b                                     
   -0.011606  4a 6a 4b -> 7a 18a 7b                                     
    0.014451  5a 6a 5b -> 8a 9a 9b                                      
    0.012021  4a 6a 5b -> 7a 8a 9b                                      
    0.012526  5a 6a 4b -> 7a 8a 9b                                      
    0.011899  4a 6a 5b -> 8a 9a 7b                                      
    0.020509  5a 6a 4b -> 8a 9a 7b                                      

 ************************ 2021-07-31 18:00:17 *************************
 Executing goldstone...

 Generation of CC equations in terms of H and T...
 Generation of antisymmetrized Goldstone diagrams...
 Number of diagrams in T^1 equations:    15
 Number of diagrams in T^2 equations:    38
 Number of diagrams in T^3 equations:    54
 Number of diagrams in T^4 equations:    77
 Number of diagrams in T^5 equations:     8
 Translation of diagrams to factorized equations...
 Optimizing intermediate calculation...
 Number of floating-point operations per iteration step:   4.1593E+12
 Probable CPU time per iteration step (hours):     41.59
 Required memory (Mbytes):    5622.2
 Number of intermediates:                                 119
 Number of intermediates to be stored:                     52
 Length of intermediate file (Mbytes):     983.5

 ************************ 2021-07-31 18:00:18 *************************
 Executing xmrcc...

 **********************************************************************
 CC(4)(5) calculation 
 
 
 Allocation of5622.2 Mbytes of memory...
 Number of spinorbitals:                   120
 Number of alpha electrons:                        4
 Number of beta electrons:                         3
 Spin multiplicity:                     2
 z-component of spin:  0.5
 Spatial symmetry:                      3
 Convergence criterion:  1.0E-05
 Construction of occupation graphs...
 Number of                     0 -fold excitations:                      1
 Number of                     1 -fold excitations:                    135
 Number of                     2 -fold excitations:                  13778
 Number of                     3 -fold excitations:                 699446
 Number of                     4 -fold excitations:               17511901
 Total number of configurations:               18225261
 Calculation of coupling coefficients...
 Length of intermediate file (Mbytes):     644.9
 
 ======================================================================
 
 Spin case  1   Alpha:  2   Beta:  3
 Number of excitations:               67591400
 Spin case  2   Alpha:  3   Beta:  2
 Number of excitations:              132676908
 Spin case  3   Alpha:  4   Beta:  1
 Number of excitations:               15696105
 Number of                     5 -fold excitations:              215964413
 
 Memory requirements /Mbyte/: 
               Minimal        Optimal
 Real*8:        781.1882       781.1882
 Integer:       125.5120
 Total:         906.7003       906.7003
 

 ************************ 2021-07-31 18:00:20 *************************
 Executing mrcc...

 **********************************************************************
 CCSDTQ(P) calculation                                                  
 
 
 OpenMP parallel version is running.
 Number of CPU cores:   1
 Allocation of  781.2 Mbytes of memory...
 Number of spinorbitals: 120
 Number of alpha electrons:  4
 Number of beta  electrons:  3
 Spin multiplicity: 2
 z-component of spin:  0.5
 Spatial symmetry: 3
 Convergence criterion:  1.0E-05
 Construction of occupation graphs...
 Number of 0-fold excitations: 1
 Number of 1-fold excitations: 135
 Number of 2-fold excitations: 13778
 Number of 3-fold excitations: 699446
 Number of 4-fold excitations: 17511901
 Total number of determinants: 18225261
 Calculation of coupling coefficients...
 Initial cluster amplitudes are read from unit 16.
 Length of intermediate file (Mbytes):     644.9
 Reading integral list from unit 55...
 Sorting integrals...
 Sorting integrals...
 Sorting integrals...
 Sorting integrals...
 Calculation of MP denominators...
 
 Starting CC iteration...
 ======================================================================
 Norm of residual vector:     0.16557906
 CPU time [min]:     5.902                   Wall time [min]:     5.905
 
 Iteration  1  CC energy:   -78.83530289  Energy decrease:   0.00000007
 ======================================================================
 Norm of residual vector:     0.08818632
 CPU time [min]:    12.019                   Wall time [min]:    12.025
 
 Iteration  2  CC energy:   -78.83437497  Energy decrease:   0.00092792
 ======================================================================
 Norm of residual vector:     0.03718930
 CPU time [min]:    18.142                   Wall time [min]:    18.150
 
 Iteration  3  CC energy:   -78.83617522  Energy decrease:   0.00180025
 ======================================================================
 Norm of residual vector:     0.01869141
 CPU time [min]:    24.310                   Wall time [min]:    24.361
 
 Iteration  4  CC energy:   -78.83684379  Energy decrease:   0.00066858
 ======================================================================
 Norm of residual vector:     0.00715820
 CPU time [min]:    30.498                   Wall time [min]:    30.551
 
 Iteration  5  CC energy:   -78.83707344  Energy decrease:   0.00022965
 ======================================================================
 Norm of residual vector:     0.00363039
 CPU time [min]:    36.694                   Wall time [min]:    36.749
 
 Iteration  6  CC energy:   -78.83711738  Energy decrease:   0.00004394
 ======================================================================
 Norm of residual vector:     0.00194876
 CPU time [min]:    42.909                   Wall time [min]:    42.966
 
 Iteration  7  CC energy:   -78.83707605  Energy decrease:   0.00004134
 ======================================================================
 Norm of residual vector:     0.00130718
 CPU time [min]:    49.153                   Wall time [min]:    49.213
 
 Iteration  8  CC energy:   -78.83706593  Energy decrease:   0.00001012
 ======================================================================
 Norm of residual vector:     0.00105259
 CPU time [min]:    55.426                   Wall time [min]:    55.489
 
 Iteration  9  CC energy:   -78.83705980  Energy decrease:   0.00000613
 ======================================================================
 Norm of residual vector:     0.00087837
 CPU time [min]:    61.714                   Wall time [min]:    61.778
 
 Iteration 10  CC energy:   -78.83708141  Energy decrease:   0.00002161
 ======================================================================
 Norm of residual vector:     0.00072578
 CPU time [min]:    68.037                   Wall time [min]:    68.106
 
 Iteration 11  CC energy:   -78.83711071  Energy decrease:   0.00002930
 ======================================================================
 Norm of residual vector:     0.00059473
 CPU time [min]:    74.373                   Wall time [min]:    74.446
 
 Iteration 12  CC energy:   -78.83713630  Energy decrease:   0.00002559
 ======================================================================
 Norm of residual vector:     0.00044811
 CPU time [min]:    80.739                   Wall time [min]:    80.813
 
 Iteration 13  CC energy:   -78.83715716  Energy decrease:   0.00002086
 ======================================================================
 Norm of residual vector:     0.00031637
 CPU time [min]:    87.132                   Wall time [min]:    87.209
 
 Iteration 14  CC energy:   -78.83716380  Energy decrease:   0.00000664
 ======================================================================
 Norm of residual vector:     0.00019158
 CPU time [min]:    93.563                   Wall time [min]:    93.680
 
 Iteration 15  CC energy:   -78.83716535  Energy decrease:   0.00000155
 ======================================================================
 Norm of residual vector:     0.00011462
 CPU time [min]:   100.010                   Wall time [min]:   100.130
 
 Iteration 16  CC energy:   -78.83716280  Energy decrease:   0.00000255
 ======================================================================
 Norm of residual vector:     0.00007267
 CPU time [min]:   106.464                   Wall time [min]:   106.586
 
 Iteration 17  CC energy:   -78.83716110  Energy decrease:   0.00000171
 ======================================================================
 Norm of residual vector:     0.00004668
 CPU time [min]:   112.950                   Wall time [min]:   113.074
 
 Iteration 18  CC energy:   -78.83715970  Energy decrease:   0.00000140
 ======================================================================
 Norm of residual vector:     0.00002967
 CPU time [min]:   119.455                   Wall time [min]:   119.582
 
 Iteration 19  CC energy:   -78.83715919  Energy decrease:   0.00000051
 ======================================================================
 Norm of residual vector:     0.00001838
 CPU time [min]:   125.978                   Wall time [min]:   126.107
 
 Iteration 20  CC energy:   -78.83715836  Energy decrease:   0.00000083
 ======================================================================
 Norm of residual vector:     0.00001167
 CPU time [min]:   132.518                   Wall time [min]:   132.650
 
 Iteration 21  CC energy:   -78.83715778  Energy decrease:   0.00000058
 ======================================================================
