Starting run at: Sat Mar 16 07:32:45 EDT 2024
 --invoking executable--
/cvmfs/restricted.computecanada.ca/easybuild/software/2020/avx2/Compiler/intel2020/cfour/2.1/bin/xjoda


   *************************************************************************
         <<<     CCCCCC     CCCCCC   |||     CCCCCC     CCCCCC   >>>
       <<<      CCC        CCC       |||    CCC        CCC         >>>
      <<<      CCC        CCC        |||   CCC        CCC            >>>
    <<<        CCC        CCC        |||   CCC        CCC              >>>
      <<<      CCC        CCC        |||   CCC        CCC            >>>
       <<<      CCC        CCC       |||    CCC        CCC         >>>
         <<<     CCCCCC     CCCCCC   |||     CCCCCC     CCCCCC   >>>
   *************************************************************************

     ****************************************************************
     * CFOUR Coupled-Cluster techniques for Computational Chemistry *
     ****************************************************************
 

   Department of Chemistry                Institut fuer Physikalische Chemie
   University of Florida                  Universitaet Mainz
   Gainesville, FL 32611, USA             D-55099 Mainz, Germany

   Department of Chemistry                Fakultaet fuer Chemie und Biowiss.
   Johns Hopkins University               Karlsruher Institut fuer Technologie
   Baltimore, MD 21218, USA               D-76131 Karlsruhe, Germany

   Department of Chemistry                Department of Physical Chemistry
   Southern Methodist University          Eotvos Lorand University
   Dallas, TX 75275, USA                  H-1053 Budapest, Hungary

 
                       Version 2.1
 
                     gra772                                            
                     Sat Mar 16 07:32:45 EDT 2024                      
                     integer*8 version is running
 
********************************************************************************
*                          Input from ZMAT file                                *
********************************************************************************
TITLE                                                                           
O                                                                               
                                                                                
*ACES2(CALC=CCSD(T)                                                             
FROZEN_CORE=ON                                                                  
#DROPMO=1                                                                       
#INPUT_MRCC=OFF                                                                 
#CC_PROG=MRCC                                                                   
XFORM_TOL=18                                                                    
SAVE_INTS=ON                                                                    
SCF_EXPORDER=6                                                                  
SCF_EXPSTART=5                                                                  
#SCF_DAMPING=1000                                                               
SCF_EXTRAPOLATION=ON                                                            
SCF_CONV=10                                                                     
SCF_MAXCYC=9999                                                                 
CC_CONV=10                                                                      
CC_MAXCYC=999                                                                   
T3_EXTRAPOL=ON                                                                  
REFERENCE=ROHF                                                                  
CHARGE=+0                                                                       
MULT=3                                                                          
ABCDTYPE=STANDARD                                                               
#OCCUPATION=2-1-1-0-1-0-0-0/2-0-0-0-0-0-0-0                                     
MEM=20                                                                          
MEM_UNIT=GB                                                                     
BASIS=SPECIAL)                                                                  
                                                                                
O:aV6Z-EMSL                                                                     
                                                                                
********************************************************************************
  @GTFLGS-W, Keyword #DROPMO not known and is ignored.
  @GTFLGS-W, Keyword #INPUT_MRCC not known and is ignored.
  @GTFLGS-W, Keyword #CC_PROG not known and is ignored.
  @GTFLGS-W, Keyword #SCF_DAMPING not known and is ignored.
  @GTFLGS-W, Keyword #OCCUPATION not known and is ignored.
    -------------------------------------------------------------------
                    CFOUR Control Parameters 
    -------------------------------------------------------------------
        External           Internal           Value            Units
          Name               Name
    -------------------------------------------------------------------
       ABCDTYPE             IABCDT         STANDARD    [  0]    ***   
       ANHARMONIC           IANHAR         OFF         [  0]    ***   
       ANH_ALGORIT          IANALG         STANDARD    [  0]    ***   
       ANH_DERIVAT          IANDER         SECOND      [  1]    ***   
       ANH_MODE             ANHMOD         VIBRATION   [  0]    ***   
       ANH_STEPSIZ          ICUBST             50000          x 10-6  
       ANH_SYMMETR          IANHSM         ABELIAN     [  0]    ***   
       AO_LADDERS           IAOLAD         SINGLEPASS  [  1]    ***   
       AV_SCF               IAVSCF         OFF         [  0]    ***   
       BASIS                IBASIS         SPECIAL     [  0]    ***   
       BOTHVECTORS          BOTHVC         OFF         [  0]    ***   
       BOX_POTENT           IPIAB          OFF         [  0]    ***   
       BREIT                IBREIT         OFF         [  0]    ***   
       BRUCK_CONV           IBRTOL          10D-  4             ***   
       BRUECKNER            IBRKNR         OFF         [  0]    ***   
       BUFFERSIZE           IBUFFS              4096            ***   
       CACHE_RECS           ICHREC             10               ***   
       CALCLEVEL            ICLLVL         CCSD(T)     [ 22]    ***   
       CCORBOPT             ICCORB         OFF         [  0]  x 0.01  
       CC_CONV              ICCCNV          10D- 10             ***   
       CC_EXPORDER          ICCEOR              5               ***   
       CC_EXTRAPOL          ICCEXT         DIIS        [  1]    ***   
       CC_GUESS             ICCGES         MP2         [  0]    ***   
       CC_MAXCYC            ICCCYC            999              cycles 
       CC_PROGRAM           ICCPRO         VCC         [  0]    ***   
       CHARGE               ICHRGE              0               ***   
       CHOLESKY             ICHOLE         OFF         [  0]    ***   
       CIS_CONV             ICISTL              5               ***   
       COMM_SIZE            IPSIZE            ***               ***   
       CONSTANT             ICONST         OLD         [  1]    ***   
       CONTINUUM            ICONTU         NONE        [  0]    ***   
       CONTRACTION          ICNTYP         GENERAL     [  1]    ***   
       COORDINATES          ICOORD         INTERNAL    [  0]    ***   
       CPHF_CONVER          ICPHFT          10D- 16             ***   
       CPHF_MAXCYC          ICPHFC             64              cycles 
       CUBIC                ICUBIC         OFF         [  0]    ***   
       CURVILINEAR          ICURVY         OFF         [  0]    ***   
       DBOC                 IDBOC          OFF         [  0]    ***   
       DCT                  IDCT           OFF         [  0]    ***   
       DERIV_LEV            IDRLVL         ZERO        [  0]    ***   
       DEVMEM_SIZE          IDVMEM         *********           MByte  
       DIAG_MRCC            IEOMST          10D-  0             ***   
       DIFF_TYPE            IDIFTY         RELAXED     [  0]    ***   
       DIRECT               IDIRCT         OFF         [  0]    ***   
       DROPMO               IDRPMO      NONE         
       ECP                  IECP           OFF         [  0]    ***   
       EIGENVECTOR          IVEC                1               ***   
       EL_ANHARM            IELANH         OFF         [  0]    ***   
       EOMFOLLOW            IEOMSR         ENERGY      [  0]    ***   
       EOMIP                IEOMIP         OFF         [  0]    ***   
       EOMLEVEL             HBARFM         SAME        [  0]    ***   
       EOM_MRCC             IMRCCE         NEW         [  1]    ***   
       EOM_NONIT            EOMNON         OFF         [  0]    ***   
       EOM_NSING            IEOMSI          10D-  0             ***   
       EOM_NSTATES          IMRCCD         DAVIDSON    [  0]    ***   
       EOM_NTRIP            IEOMTR          10D-  0             ***   
       EOM_ORDER            IEXORD         ENERGY      [  0]    ***   
       EOM_PROPSTA          IEOMST              0               ***   
       ESTATE_CONV          IEXTOL          10D-  5             ***   
       ESTATE_DIAG          IEXDIG         ITERATIVE   [  0]    ***   
       ESTATE_LOCK          IESLOC         ON          [  1]    ***   
       ESTATE_MAXC          IEXMXC             40               ***   
       ESTATE_PROP          IEXPRP         OFF         [  0]    ***   
       EVAL_HESS            IRECAL              0            # of cyc.
       EXCITATION           IEXCIT              0               ***   
       EXCITE               IEXCIT         NONE        [  0]    ***   
       EXTERN_POT           IEXPOT         OFF         [  0]    ***   
       FCGRADNEW            IFCGNW         OFF         [  0]    ***   
       FC_FIELD             IFINFC              0             x 10-6  
       FD_CALTYPE           IFDCAL         GRADONLY    [  0]    ***   
       FD_PROJECT           IFDPRJ         OFF         [  1]    ***   
       FD_STEPSIZE          IDISFD              0            10-4 bohr
       FD_USEGROUP          IFDGRP         FULL        [  0]    ***   
       FILE_RECSIZ          IFLREC              4096           words  
       FINITE_PERT          IFIPER              0             x 10-6  
       FIXGEOM              IFIXGM         OFF         [  0]    ***   
       FOCK                 IFOCK          AO          [  1]    ***   
       FREQ_ALGORI          IVIALG         STANDARD    [  0]    ***   
       FROZEN_CORE          IFROCO         ON          [  1]    ***   
       GAMMA_ABCD           IGABCD         STORE       [  0]    ***   
       GAMMA_ABCI           IGABCI         STORE       [  0]    ***   
       GENBAS_1             IGNBS1              0               ***   
       GENBAS_2             IGNBS2              0               ***   
       GENBAS_3             IGNBS3              0               ***   
       GENBAS_4             IGNBS4              0               ***   
       GEO_CONV             ICONTL              5              H/bohr 
       GEO_MAXCYC           IOPTCY             50               ***   
       GEO_MAXSTEP          IMXSTP            300            millibohr
       GEO_METHOD           INR            SINGLE_POINT[  5]    ***   
       GIAO                 IGIAO          OFF         [  1]    ***   
       GIMIC                IGIMIC         OFF         [  0]    ***   
       GRID                 IGRID          OFF         [  0]    ***   
       GRID_ALGO            IGALGO         SERIAL      [  0]    ***   
       GUESS                IGUESS         MOREAD      [  0]    ***   
       HBAR                 IHBAR          OFF         [  0]    ***   
       HESS_TYPE            IHESTP         SCF         [  0]    ***   
       HF2_FILE             IHF2Fl         USE         [  1]    ***   
       HFSTABILITY          ISTABL         OFF         [  0]    ***   
       INCORE               INCORE         OFF         [  0]    ***   
       INPUT_MRCC           IMRCC          ON          [  1]    ***   
       INTEGRALS            INTTYP         VMOL        [  1]    ***   
       JODA_PRINT           IJPRNT              0               ***   
       KEYWORD_OUT          IDMPKW         NO          [  0]    ***   
       LINDEP_TOL           ILINDP              8               ***   
       LINEQ_CONV           IZTACN          10D-  7           cycles  
       LINEQ_EXPOR          ILMAXD              5               ***   
       LINEQ_MAXCY          ILMAXC            100               ***   
       LINEQ_TYPE           ILTYPE         DIIS        [  1]    ***   
       LOCK_ORBOCC          ILOCOC         OFF         [  0]    ***   
       MEMORY_SIZE          IMEMSZ         *********           words  
       MEM_UNIT             IMEMU          GB          [  3]    ***   
       MRCC                 IMRCCC         OFF         [  0]    ***   
       MULTIPLICTY          IMULTP              3               ***   
       NACOUPLING           IVCOUP         OFF         [  0]    ***   
       NEGEVAL              IDIE           ABORT       [  0]    ***   
       NEWNORM              INEWNO         OFF         [  0]    ***   
       NON-HF               INONHF         ON          [  1]    ***   
       NTOP_TAMP            ITOPT2             15               ***   
       NUC_MODEL            INUCMO         POINT       [  0]    ***   
       OCCUPATION           IOCCU   ESTIMATED BY SCF 
       OPEN-SHELL           IOPEN          SPIN-ORBITAL[  0]    ***   
       OPTVIB               IOPTVB         OFF         [  0]    ***   
       ORBITALS             IORBTP         SEMICANONICA[  1]    ***   
       PARALLEL             IPARAL         ON          [  1]    ***   
       PARA_INT             IPINTS         ON          [  1]    ***   
       PARA_PRINT           IPPRIN              0               ***   
       PERT_ORB             IPTORB         STANDARD    [  0]    ***   
       POINTS               IGRDFD              0               ***   
       PRINT                IPRNT               0               ***   
       PROPS                IPROPS         OFF         [  0]    ***   
       PROP_INTEGR          IINTYP         INTERNAL    [  0]    ***   
       PSI                  IPSI           OFF         [  0]    ***   
       QC_ALG               IQCALG         FLM         [  0]    ***   
       QC_LINALG            IQCLIN         TRIDIAG     [  2]    ***   
       QC_MAXCYC            IQCMAX          10D-100           cycles  
       QC_MAXSCFCY          IQCMSC          10D- 15           cycles  
       QC_RTRUST            IQCRTR          10D-  0           x 10-3  
       QC_SKIPSCF           IQCSKI         OFF         [  0]    ***   
       QC_START             IQCSTA          10D-  1             ***   
       QRHFGUESS            IQGUES         OFF         [  0]    ***   
       QUARTIC              IQUART         OFF         [  0]    ***   
       RAMAN_INT            IRAMIN         OFF         [  0]    ***   
       RAMAN_ORB            IRAMRE         UNRELAXED   [  0]    ***   
       RDO                  IRDOFM         OFF         [  0]    ***   
       REDUCE_REPR          REDREP         Ir          [  0]    ***   
       REFERENCE            IREFNC         ROHF        [  2]    ***   
       RELATIVIST           IRELAT         OFF         [  0]    ***   
       RELAX_DENS           IRDENS         OFF         [  0]    ***   
       RESET_FLAGS          IRESET         OFF         [  0]    ***   
       RESTART_CC           ICCRES         OFF         [  0]    ***   
       ROT_EVEC             ROTVEC              0               ***   
       SAVE_INTS            ISVINT         ON          [  1]    ***   
       SCALE_ON             ISTCRT              0               ***   
       SCF_CONV             ISCFCV          10D- 10             ***   
       SCF_DAMPING          IDAMP               0             x 10-3  
       SCF_EXPORDE          IRPPOR              6               ***   
       SCF_EXPSTAR          IRPPLS              5               ***   
       SCF_EXTRAPO          IRPP           ON          [  1]    ***   
       SCF_MAXCYC           ISCFCY            ***              cycles 
       SCF_NOSTOP           ISCFST         OFF         [  0]    ***   
       SCF_PRINT            ISCFPR              0               ***   
       SCF_PROG             ISCFPR         SCF         [  0]    ***   
       SD_FIELD             IFINSD              0             x 10-6  
       SOPERT               IPERSO         OFF         [  0]    ***   
       SPHERICAL            IDFGHI         ON          [  1]    ***   
       SPINORBIT            ISOCAL         OFF         [  0]    ***   
       SPINROTATIO          ISRCON         OFF         [  0]    ***   
       SPIN_FLIP            ISPFLP         OFF         [  0]    ***   
       SPIN_ORBIT           ISPORB         OFF         [  0]    ***   
       SPIN_SCAL            ISCSMP         OFF         [  0]    ***   
       STEEPSCALE           ISTPSC              1000          x 10-3  
       SUBGROUP             ISUBGP         DEFAULT     [  0]    ***   
       SUBGRPAXIS           ISBXYZ         X           [  0]    ***   
       SYMMETRY             ISYM           ON          [  0]    ***   
       SYM_CHECK            ISYMCK         OVERRIDE    [  1]    ***   
       T3_EXTRAPOL          IT3EXT         ON          [  1]    ***   
       T4_EXTRAPOL          IT4EXP         OFF         [  0]    ***   
       TAMP_SUM             IEVERY              5               ***   
       TESTSUITE            ITESTS         OFF         [  0]    ***   
       THERMOCH             ITHERM         OFF         [  0]    ***   
       TOL_CHOLESK          ITOLCH          10D-  4             ***   
       TRANGRAD             IRESRM         OFF         [  0]    ***   
       TRANS_INV            ITRAIN         USE         [  0]    ***   
       TREAT_PERT           ITREAT         SIMULTANEOUS[  0]    ***   
       TRIP_ALGORI          ITRALG         NORMAL      [  0]    ***   
       UIJ_THRESHO          IUIJTH              1               ***   
       UNITS                IUNITS         ANGSTROM    [  0]    ***   
       UNOS                 IUNOS          OFF         [  0]    ***   
       UPDATE_HESS          IHUPDT         ON          [  1]    ***   
       VIBPHASE             ISETPH         STANDARD    [  0]    ***   
       VIBRATION            IVIB           NO          [  0]    ***   
       VIB_ALGORIT          IGEALG         STANDARD    [  0]    ***   
       VNATORB              IVNORB         OFF         [  0]    ***   
       VTRAN                IVTRAN         FULL/PARTIAL[  0]    ***   
       XFIELD               IXEFLD              0             x 10-6  
       XFORM_TOL            IXFTOL          10D- 18             ***   
       YFIELD               IYEFLD              0             x 10-6  
       ZFIELD               IZEFLD              0             x 10-6  
       ZSCALE_EXP           IZEXPS         OFF         [  0]    ***   
    -------------------------------------------------------------------
   1 entries found in Z-matrix 
   Job Title : TITLE                                                                           
   Rotational constants (in cm-1): 

   Rotational constants (in MHz): 

********************************************************************************
   The full molecular point group is I h .
   The largest Abelian subgroup of the full molecular point group is D2h .
   The computational point group is D2h .
********************************************************************************
  ECPDATA file not present.   Using default ECPDATA. 
  @GTFLGS-W, Keyword #DROPMO not known and is ignored.
  @GTFLGS-W, Keyword #INPUT_MRCC not known and is ignored.
  @GTFLGS-W, Keyword #CC_PROG not known and is ignored.
  @GTFLGS-W, Keyword #SCF_DAMPING not known and is ignored.
  @GTFLGS-W, Keyword #OCCUPATION not known and is ignored.
  There is   1 frozen-core orbital.
  There is   1 frozen-core orbital.
  There are  189 basis functions.
 @GEOPT-W, Archive file not created for single-point calculation.
 @CHECKOUT-I, Total execution time (CPU/WALL):        0.29/       1.79 seconds.
--executable xjoda finished with status     0 in        1.90 seconds (walltime).
 --invoking executable--
/cvmfs/restricted.computecanada.ca/easybuild/software/2020/avx2/Compiler/intel2020/cfour/2.1/bin/xvmol
 SERIAL VERSION OF MOLECULE STARTED
********************************************************************************
                    INPUT FROM MOL FILE
********************************************************************************
INTGRL        1    0    1    0    0    0    0    0    0                         
         *** CFOUR Program System (Release V0.1) ***                            
TITLE                                                                           
    1    3 X  Y   Z   0.10E-08              0    0                              
   9999.00      3.00                                                            
          8.00000000    1    7    1    1    1    1    1    1    1               
O #1   0.000000000000000   0.000000000000000   0.000000000000000                
   17    8                                                                      
   570800.000000000       5.500000000000000E-006 -1.200000000000000E-006        
  0.000000000000000E+000  0.000000000000000E+000  0.000000000000000E+000        
  0.000000000000000E+000  0.000000000000000E+000  0.000000000000000E+000        
   85480.0000000000       4.310000000000000E-005 -9.700000000000000E-006        
  0.000000000000000E+000  0.000000000000000E+000  0.000000000000000E+000        
  0.000000000000000E+000  0.000000000000000E+000  0.000000000000000E+000        
   19460.0000000000       2.266000000000000E-004 -5.140000000000000E-005        
  0.000000000000000E+000  0.000000000000000E+000  0.000000000000000E+000        
  0.000000000000000E+000  0.000000000000000E+000  0.000000000000000E+000        
   5512.00000000000       9.563000000000000E-004 -2.169000000000000E-004        
  0.000000000000000E+000  0.000000000000000E+000  0.000000000000000E+000        
  0.000000000000000E+000  0.000000000000000E+000  0.000000000000000E+000        
   1798.00000000000       3.473200000000000E-003 -7.916000000000001E-004        
  0.000000000000000E+000  0.000000000000000E+000  0.000000000000000E+000        
  0.000000000000000E+000  0.000000000000000E+000  0.000000000000000E+000        
   648.900000000000       1.119770000000000E-002 -2.559000000000000E-003        
  0.000000000000000E+000  0.000000000000000E+000  0.000000000000000E+000        
  0.000000000000000E+000  0.000000000000000E+000  0.000000000000000E+000        
   253.100000000000       3.238760000000000E-002 -7.533100000000000E-003        
  0.000000000000000E+000  0.000000000000000E+000  0.000000000000000E+000        
  0.000000000000000E+000  0.000000000000000E+000  0.000000000000000E+000        
   104.900000000000       8.285969999999999E-002 -1.978890000000000E-002        
  0.000000000000000E+000  0.000000000000000E+000  0.000000000000000E+000        
  0.000000000000000E+000  0.000000000000000E+000  0.000000000000000E+000        
   45.6500000000000       0.179583800000000      -4.606280000000000E-002        
  0.000000000000000E+000  0.000000000000000E+000  0.000000000000000E+000        
  0.000000000000000E+000  0.000000000000000E+000  0.000000000000000E+000        
   20.6200000000000       0.305221100000000      -8.919560000000000E-002        
  0.000000000000000E+000  0.000000000000000E+000  0.000000000000000E+000        
  0.000000000000000E+000  0.000000000000000E+000  0.000000000000000E+000        
   9.58700000000000       0.340893400000000      -0.137542100000000             
  0.000000000000000E+000  0.000000000000000E+000  0.000000000000000E+000        
  0.000000000000000E+000  0.000000000000000E+000  0.000000000000000E+000        
   4.49300000000000       0.177426100000000      -0.105119400000000             
   1.00000000000000       0.000000000000000E+000  0.000000000000000E+000        
  0.000000000000000E+000  0.000000000000000E+000  0.000000000000000E+000        
   1.83700000000000       2.049100000000000E-002  0.144771400000000             
  0.000000000000000E+000   1.00000000000000       0.000000000000000E+000        
  0.000000000000000E+000  0.000000000000000E+000  0.000000000000000E+000        
  0.834900000000000      -9.680000000000000E-004  0.441463300000000             
  0.000000000000000E+000  0.000000000000000E+000   1.00000000000000             
  0.000000000000000E+000  0.000000000000000E+000  0.000000000000000E+000        
  0.365800000000000       1.057100000000000E-003  0.444681400000000             
  0.000000000000000E+000  0.000000000000000E+000  0.000000000000000E+000        
   1.00000000000000       0.000000000000000E+000  0.000000000000000E+000        
  0.157000000000000      -9.720000000000000E-005  0.128242500000000             
  0.000000000000000E+000  0.000000000000000E+000  0.000000000000000E+000        
  0.000000000000000E+000   1.00000000000000       0.000000000000000E+000        
  5.935000000000000E-002  0.000000000000000E+000  0.000000000000000E+000        
  0.000000000000000E+000  0.000000000000000E+000  0.000000000000000E+000        
  0.000000000000000E+000  0.000000000000000E+000   1.00000000000000             
   11    7                                                                      
   525.600000000000       1.666000000000000E-004  0.000000000000000E+000        
  0.000000000000000E+000  0.000000000000000E+000  0.000000000000000E+000        
  0.000000000000000E+000  0.000000000000000E+000                                
   124.600000000000       1.433300000000000E-003  0.000000000000000E+000        
  0.000000000000000E+000  0.000000000000000E+000  0.000000000000000E+000        
  0.000000000000000E+000  0.000000000000000E+000                                
   40.3400000000000       7.547600000000000E-003  0.000000000000000E+000        
  0.000000000000000E+000  0.000000000000000E+000  0.000000000000000E+000        
  0.000000000000000E+000  0.000000000000000E+000                                
   15.1800000000000       2.859450000000000E-002  0.000000000000000E+000        
  0.000000000000000E+000  0.000000000000000E+000  0.000000000000000E+000        
  0.000000000000000E+000  0.000000000000000E+000                                
   6.24500000000000       8.438850000000001E-002  0.000000000000000E+000        
  0.000000000000000E+000  0.000000000000000E+000  0.000000000000000E+000        
  0.000000000000000E+000  0.000000000000000E+000                                
   2.73200000000000       0.187483400000000        1.00000000000000             
  0.000000000000000E+000  0.000000000000000E+000  0.000000000000000E+000        
  0.000000000000000E+000  0.000000000000000E+000                                
   1.22700000000000       0.297905700000000       0.000000000000000E+000        
   1.00000000000000       0.000000000000000E+000  0.000000000000000E+000        
  0.000000000000000E+000  0.000000000000000E+000                                
  0.549200000000000       0.338557500000000       0.000000000000000E+000        
  0.000000000000000E+000   1.00000000000000       0.000000000000000E+000        
  0.000000000000000E+000  0.000000000000000E+000                                
  0.241800000000000       0.247260900000000       0.000000000000000E+000        
  0.000000000000000E+000  0.000000000000000E+000   1.00000000000000             
  0.000000000000000E+000  0.000000000000000E+000                                
  0.102500000000000       7.003350000000000E-002  0.000000000000000E+000        
  0.000000000000000E+000  0.000000000000000E+000  0.000000000000000E+000        
   1.00000000000000       0.000000000000000E+000                                
  3.380000000000000E-002  0.000000000000000E+000  0.000000000000000E+000        
  0.000000000000000E+000  0.000000000000000E+000  0.000000000000000E+000        
  0.000000000000000E+000   1.00000000000000                                     
    6    6                                                                      
   8.25300000000000        1.00000000000000       0.000000000000000E+000        
  0.000000000000000E+000  0.000000000000000E+000  0.000000000000000E+000        
  0.000000000000000E+000                                                        
   3.59700000000000       0.000000000000000E+000   1.00000000000000             
  0.000000000000000E+000  0.000000000000000E+000  0.000000000000000E+000        
  0.000000000000000E+000                                                        
   1.56800000000000       0.000000000000000E+000  0.000000000000000E+000        
   1.00000000000000       0.000000000000000E+000  0.000000000000000E+000        
  0.000000000000000E+000                                                        
  0.684000000000000       0.000000000000000E+000  0.000000000000000E+000        
  0.000000000000000E+000   1.00000000000000       0.000000000000000E+000        
  0.000000000000000E+000                                                        
  0.298000000000000       0.000000000000000E+000  0.000000000000000E+000        
  0.000000000000000E+000  0.000000000000000E+000   1.00000000000000             
  0.000000000000000E+000                                                        
  0.115000000000000       0.000000000000000E+000  0.000000000000000E+000        
  0.000000000000000E+000  0.000000000000000E+000  0.000000000000000E+000        
   1.00000000000000                                                             
    5    5                                                                      
   5.43000000000000        1.00000000000000       0.000000000000000E+000        
  0.000000000000000E+000  0.000000000000000E+000  0.000000000000000E+000        
   2.41600000000000       0.000000000000000E+000   1.00000000000000             
  0.000000000000000E+000  0.000000000000000E+000  0.000000000000000E+000        
   1.07500000000000       0.000000000000000E+000  0.000000000000000E+000        
   1.00000000000000       0.000000000000000E+000  0.000000000000000E+000        
  0.478000000000000       0.000000000000000E+000  0.000000000000000E+000        
  0.000000000000000E+000   1.00000000000000       0.000000000000000E+000        
  0.195000000000000       0.000000000000000E+000  0.000000000000000E+000        
  0.000000000000000E+000  0.000000000000000E+000   1.00000000000000             
    4    4                                                                      
   5.21100000000000        1.00000000000000       0.000000000000000E+000        
  0.000000000000000E+000  0.000000000000000E+000                                
   2.19000000000000       0.000000000000000E+000   1.00000000000000             
  0.000000000000000E+000  0.000000000000000E+000                                
  0.920000000000000       0.000000000000000E+000  0.000000000000000E+000        
   1.00000000000000       0.000000000000000E+000                                
  0.406000000000000       0.000000000000000E+000  0.000000000000000E+000        
  0.000000000000000E+000   1.00000000000000                                     
    3    3                                                                      
   3.87200000000000        1.00000000000000       0.000000000000000E+000        
  0.000000000000000E+000                                                        
   1.50500000000000       0.000000000000000E+000   1.00000000000000             
  0.000000000000000E+000                                                        
  0.748000000000000       0.000000000000000E+000  0.000000000000000E+000        
   1.00000000000000                                                             
    2    2                                                                      
   2.77300000000000        1.00000000000000       0.000000000000000E+000        
   1.34500000000000       0.000000000000000E+000   1.00000000000000             
FINISH                                                                          
 
********************************************************************************
OMP: Info #274: omp_set_nested routine deprecated, please use omp_set_max_active_levels instead.
 ONE- AND TWO-ELECTRON INTEGRALS OVER SYMMETRY-ADAPTED AOS ARE CALCULATED.

  SPHERICAL HARMONICS ARE USED.
  
  INTEGRALS LESS THAN  0.10E-13 ARE NEGLECTED.

  NUCLEAR REPULSION ENERGY :    0.0000000000 A.U.
  @MOLECU-I, ONE ELECTRON INTEGRALS (CPU/WALL):        0.13/       0.13 SECONDS.
  @TWOEL-I,     482321 INTEGRALS OF SYMMETRY TYPE  I I I I
  @TWOEL-I,    4119775 INTEGRALS OF SYMMETRY TYPE  I J I J
  @TWOEL-I,    2366897 INTEGRALS OF SYMMETRY TYPE  I I J J
  @TWOEL-I,   10122549 INTEGRALS OF SYMMETRY TYPE  I J K L
  @TWOEL-I, TOTAL NUMBER OF 2-E INTEGRALS   17091542.
  @MOLECU-I, TWO ELECTRON INTEGRALS (CPU/WALL):       67.89/      68.46 SECONDS.
 @CHECKOUT-I, Total execution time (CPU/WALL):       68.05/      69.01 seconds.

OMP_NUM_THREADS not specified; defaulting to 1
Running with 1 threads/proc

--executable xvmol finished with status     0 in       69.08 seconds (walltime).
 --invoking executable--
/cvmfs/restricted.computecanada.ca/easybuild/software/2020/avx2/Compiler/intel2020/cfour/2.1/bin/xvmol2ja
 @GETMEM-I,  Allocated   19073 MB of main memory.
 @CHECKOUT-I, Total execution time (CPU/WALL):        0.04/       0.04 seconds.
--executable xvmol2ja finished with status     0 in        0.10 seconds (walltime).
 --invoking executable--
/cvmfs/restricted.computecanada.ca/easybuild/software/2020/avx2/Compiler/intel2020/cfour/2.1/bin/xvscf
  There are  189 functions in the AO basis.

  There are 8 irreducible representations.

       Irrep        # of functions
         1                 40
         2                 26
         3                 26
         4                 20
         5                 26
         6                 20
         7                 20
         8                 11


  Parameters for SCF calculation: 
        SCF reference function: ROHF  
  Maximum number of iterations: 9999
     Full symmetry point group: I h 
     Computational point group: D2h 
        Initial density matrix: CORE                   
     SCF convergence tolerance: 10**(-10)
  DIIS convergence acceleration:  ON
          Latest start for DIIS:   5
                     DIIS order:   6

  Memory information:    2725225 words required.
  Fock matrices are constructed from AO integral file.
 @GETMEM-I,  Allocated      20 MB of main memory.
  Initialization and symmetry analysis required      0.005 seconds.

  @INITGES-I, Occupancies from core Hamiltonian:

          Alpha population by irrep:   2    1    1    0    1    0    0    0
           Beta population by irrep:   2    1    0    0    0    0    0    0


 total no. of electrons in initial guess :  0.000000000000000E+000
 total no. of electrons in initial guess :  0.000000000000000E+000
  --------------------------------------------------------------------
  Iteration         Total Energy            Largest Density Difference
  --------------------------------------------------------------------
       0             0.000000000000000              0.0000000000D+00
   current occupation vector 
     2  1  1  0  1  0  0  0
     2  1  0  0  0  0  0  0
       1           -66.713221899200875              0.9132525258D+01
   current occupation vector 
     2  1  1  0  1  0  0  0
     2  1  0  0  0  0  0  0
       2           -68.400248510953574              0.9131560440D+01
   current occupation vector 
     2  1  1  0  1  0  0  0
     2  1  0  0  0  0  0  0
       3           -73.485478239012636              0.2343430399D+01
   current occupation vector 
     2  1  1  0  1  0  0  0
     2  1  0  0  0  0  0  0
       4           -72.629450984794715              0.2335385928D+01
   current occupation vector 
     2  1  1  0  1  0  0  0
     2  1  0  0  0  0  0  0
       5           -74.390923186338696              0.1618905958D+01
   current occupation vector 
     2  1  1  0  1  0  0  0
     2  1  0  0  0  0  0  0
       6           -74.795286136217797              0.5730561158D+00
   current occupation vector 
     2  1  1  0  1  0  0  0
     2  1  0  0  0  0  0  0
       7           -74.812048472638793              0.8736479636D-01
   current occupation vector 
     2  1  1  0  1  0  0  0
     2  1  0  0  0  0  0  0
       8           -74.812324811173738              0.1301363731D-01
   current occupation vector 
     2  1  1  0  1  0  0  0
     2  1  0  0  0  0  0  0
       9           -74.812359644186444              0.1021678390D-01
   current occupation vector 
     2  1  1  0  1  0  0  0
     2  1  0  0  0  0  0  0
      10           -74.812377568184942              0.3556403916D-02
   current occupation vector 
     2  1  1  0  1  0  0  0
     2  1  0  0  0  0  0  0
      11           -74.812378268510926              0.1167380125D-02
   current occupation vector 
     2  1  1  0  1  0  0  0
     2  1  0  0  0  0  0  0
      12           -74.812378273629307              0.6469292937D-04
   current occupation vector 
     2  1  1  0  1  0  0  0
     2  1  0  0  0  0  0  0
      13           -74.812378273799638              0.2227302378D-04
   current occupation vector 
     2  1  1  0  1  0  0  0
     2  1  0  0  0  0  0  0
      14           -74.812378273807866              0.4593694872D-05
   current occupation vector 
     2  1  1  0  1  0  0  0
     2  1  0  0  0  0  0  0
      15           -74.812378273807468              0.4083087878D-07
   current occupation vector 
     2  1  1  0  1  0  0  0
     2  1  0  0  0  0  0  0
      16           -74.812378273807070              0.1273973974D-07
   current occupation vector 
     2  1  1  0  1  0  0  0
     2  1  0  0  0  0  0  0
      17           -74.812378273806829              0.4064005427D-08
   current occupation vector 
     2  1  1  0  1  0  0  0
     2  1  0  0  0  0  0  0
      18           -74.812378273806829              0.7713475681D-09
   current occupation vector 
     2  1  1  0  1  0  0  0
     2  1  0  0  0  0  0  0

  SCF has converged.

 Density matrix saved to file den.dat
 total alpha spin electron number:   4.99999999999999     
 total  beta spin electron number:   2.99999999999999     
     E(ROHF)=       -74.812378273806701              0.6684377510D-10

  Eigenvector printing suppressed.


       The average multiplicity is    3.0000000
  The expectation value of S**2 is    2.0000000

 @PUTMOS-I, Writing converged MOs to NEWMOS. 
 @PUTMOS-I, Symmetry   1 Full Blocks 10 Partial Blocksize   0
 @PUTMOS-I, Symmetry   2 Full Blocks  6 Partial Blocksize   2
 @PUTMOS-I, Symmetry   3 Full Blocks  6 Partial Blocksize   2
 @PUTMOS-I, Symmetry   4 Full Blocks  5 Partial Blocksize   0
 @PUTMOS-I, Symmetry   5 Full Blocks  6 Partial Blocksize   2
 @PUTMOS-I, Symmetry   6 Full Blocks  5 Partial Blocksize   0
 @PUTMOS-I, Symmetry   7 Full Blocks  5 Partial Blocksize   0
 @PUTMOS-I, Symmetry   8 Full Blocks  2 Partial Blocksize   3
 @PUTFOCK-I, Writing converged Fock matrix to NEWFOCK. 
 @PUTFOCK-I, Symmetry   1 Full Blocks 10 Partial Blocksize   0
 @PUTFOCK-I, Symmetry   2 Full Blocks  6 Partial Blocksize   2
 @PUTFOCK-I, Symmetry   3 Full Blocks  6 Partial Blocksize   2
 @PUTFOCK-I, Symmetry   4 Full Blocks  5 Partial Blocksize   0
 @PUTFOCK-I, Symmetry   5 Full Blocks  6 Partial Blocksize   2
 @PUTFOCK-I, Symmetry   6 Full Blocks  5 Partial Blocksize   0
 @PUTFOCK-I, Symmetry   7 Full Blocks  5 Partial Blocksize   0
 @PUTFOCK-I, Symmetry   8 Full Blocks  2 Partial Blocksize   3
  @DMPJOB-I, Rotating orbitals to semicanonical basis.
             *** Eigenvalues correspond to new basis. ***

  @PRJDEN-I, Basis set contains h and/or higher angular momentum functions.
             Analysis of density matrix symmetry not available.
             Check irreps of the molecular orbitals in the full point group
             for presence of an asymmetric solution.

 
  ORBITAL EIGENVALUES (ALPHA)  (1H = 27.2113834 eV)

       MO #        E(hartree)               E(eV)           FULLSYM    COMPSYM
       ----   --------------------   --------------------   -------   ---------
    1     1         -20.7059352085        -563.4371416141      Ag        Ag (1)
    2     2          -1.4043529394         -38.2143862625      Ag        Ag (1)
    3    67          -0.7027008870         -19.1214632529       u       B3u (3)
    4   113          -0.7027008870         -19.1214632529       u       B1u (5)
    5    41          -0.6065334763         -16.5046149678      Au       B2u (2)
  +++++++++++++++++++++++++++++++++++++++++++++++++++++++++++++++++++++++++++++
    6   114           0.0777291160           2.1151167775       u       B1u (5)
    7    68           0.0777291160           2.1151167775       u       B3u (3)
    8    42           0.0813668542           2.2141046656      Au       B2u (2)
    9     3           0.1029478124           2.8013523932      Ag        Ag (1)
   10     4           0.3417016829           9.2981755017       g        Ag (1)
   11   159           0.3417016829           9.2981755017       g       B2g (7)
   12    69           0.3437242801           9.3532131684       u       B3u (3)
   13   115           0.3437242801           9.3532131684       u       B1u (5)
   14    93           0.3484108779           9.4807419788       g       B1g (4)
   15   139           0.3484108779           9.4807419788       g       B3g (6)
   16     5           0.3505271904           9.5383297701      Ag        Ag (1)
   17    43           0.3596517403           9.7866213967      Au       B2u (2)
   18     6           0.5755716564          15.6621010152      Ag        Ag (1)
   19   116           0.7814474269          21.2642655393       u       B1u (5)
   20    70           0.7814474269          21.2642655393       u       B3u (3)
   21   179           0.7886468368          21.4601714431       u        Au (8)
   22    44           0.7886468368          21.4601714431       u       B2u (2)
   23    71           0.7929488820          21.5772360443       u       B3u (3)
   24   117           0.7929488820          21.5772360443       u       B1u (5)
   25    45           0.7943800743          21.6161807671      Au       B2u (2)
   26   160           1.0313648595          28.0648646164       g       B2g (7)
   27     7           1.0313648595          28.0648646164       g        Ag (1)
   28    94           1.0539640237          28.6798191395       g       B1g (4)
   29   140           1.0539640237          28.6798191395       g       B3g (6)
   30     8           1.0605357934          28.8586460829      Ag        Ag (1)
   31    72           1.0909492476          29.6862382458       u       B3u (3)
   32   118           1.0909492476          29.6862382458       u       B1u (5)
   33    46           1.1284296581          30.7061320668      Au       B2u (2)
   34     9           2.0143832656          54.8141553540       g        Ag (1)
   35   161           2.0143832656          54.8141553540       g       B2g (7)
   36   141           2.0254461888          55.1151927986       g       B3g (6)
   37    95           2.0254461888          55.1151927986       g       B1g (4)
   38    10           2.0333860835          55.3312483181       g        Ag (1)
   39   162           2.0333860835          55.3312483181       g       B2g (7)
   40    96           2.0381672867          55.4613514715       g       B1g (4)
   41   142           2.0381672867          55.4613514715       g       B3g (6)
   42    11           2.0397635189          55.5047871581      Ag        Ag (1)
   43    12           2.0514119212          55.8217562985      Ag        Ag (1)
   44    73           2.2382029800          60.9045994164       u       B3u (3)
   45   119           2.2382029800          60.9045994164       u       B1u (5)
   46    47           2.2585509249          61.4582951464       u       B2u (2)
   47   180           2.2585509249          61.4582951464       u        Au (8)
   48    74           2.2705171345          61.7839122633       u       B3u (3)
   49   120           2.2705171345          61.7839122633       u       B1u (5)
   50    48           2.2744440834          61.8907699759      Au       B2u (2)
   51   163           2.5265087319          68.7497977679       g       B2g (7)
   52    13           2.5265087319          68.7497977679       g        Ag (1)
   53    97           2.5697757294          69.9271526247       g       B1g (4)
   54   143           2.5697757294          69.9271526247       g       B3g (6)
   55    14           2.5829134420          70.2846479593      Ag        Ag (1)
   56    75           2.9729826080          80.8989695868       u       B3u (3)
   57   121           2.9729826080          80.8989695868       u       B1u (5)
   58    49           3.0329476883          82.5307023782      Au       B2u (2)
   59   122           4.3798291244         119.1812095304       u       B1u (5)
   60    76           4.3798291244         119.1812095304       u       B3u (3)
   61   181           4.3943565264         119.5765202355                Au (8)
   62    50           4.3943565264         119.5765202355               B2u (2)
   63    77           4.4056601557         119.8841076278       u       B3u (3)
   64   123           4.4056601557         119.8841076278       u       B1u (5)
   65   182           4.4137378702         120.1039134123       u        Au (8)
   66    51           4.4137378702         120.1039134123       u       B2u (2)
   67    78           4.4185863193         120.2358464200       u       B3u (3)
   68   124           4.4185863193         120.2358464200       u       B1u (5)
   69    52           4.4202028030         120.2798331792      Au       B2u (2)
   70    79           5.3148706275         144.6249823664       u       B3u (3)
   71   125           5.3148706275         144.6249823664       u       B1u (5)
   72    53           5.3519539289         145.6340702993       u       B2u (2)
   73   183           5.3519539289         145.6340702993       u        Au (8)
   74    15           5.3588293944         145.8211612274       g        Ag (1)
   75   164           5.3588293944         145.8211612274       g       B2g (7)
   76   126           5.3738643725         146.2302837810       u       B1u (5)
   77    80           5.3738643725         146.2302837810       u       B3u (3)
   78    54           5.3810636802         146.4261869013      Au       B2u (2)
   79    98           5.3836610268         146.4968642948       g       B1g (4)
   80   144           5.3836610268         146.4968642948       g       B3g (6)
   81   165           5.4013390938         146.9779089556       g       B2g (7)
   82    16           5.4013390938         146.9779089556       g        Ag (1)
   83    99           5.4119306976         147.2661211464       g       B1g (4)
   84   145           5.4119306976         147.2661211464       g       B3g (6)
   85    17           5.4154592547         147.3621380664      Ag        Ag (1)
   86   166           5.9454636157         161.7842899387       g       B2g (7)
   87    18           5.9454636157         161.7842899387       g        Ag (1)
   88   146           6.0028892401         163.3469206201       g       B3g (6)
   89   100           6.0028892401         163.3469206201       g       B1g (4)
   90    19           6.0215115680         163.8536599248      Ag        Ag (1)
   91    20           6.2779067583         170.8305277499      Ag        Ag (1)
   92    81           7.6147494162         207.2078658600       u       B3u (3)
   93   127           7.6147494162         207.2078658600       u       B1u (5)
   94    55           7.6899846571         209.2551208453      Au       B2u (2)
   95   167           9.2966275160         252.9740956662    XXXX      XXXX (7)
   96    21           9.2966275160         252.9740956662    XXXX      XXXX (1)
   97   101           9.3152621025         253.4811685422    XXXX      XXXX (4)
   98   147           9.3152621025         253.4811685422    XXXX      XXXX (6)
   99    22           9.3305133774         253.8961768313       g        Ag (1)
  100   168           9.3305133774         253.8961768313       g       B2g (7)
  101   148           9.3423791568         254.2190611029       g       B3g (6)
  102   102           9.3423791568         254.2190611029       g       B1g (4)
  103    23           9.3508569612         254.4497538887       g        Ag (1)
  104   169           9.3508569612         254.4497538887       g       B2g (7)
  105   149           9.3559446199         254.5881961212       g       B3g (6)
  106   103           9.3559446199         254.5881961212       g       B1g (4)
  107    24           9.3576406764         254.6343481641      Ag        Ag (1)
  108   128          10.7079549932         291.3782687487       u       B1u (5)
  109    82          10.7079549932         291.3782687487       u       B3u (3)
  110    56          10.7345140753         292.1009781160               B2u (2)
  111   184          10.7345140753         292.1009781160                Au (8)
  112    83          10.7551586247         292.6627448632       u       B3u (3)
  113   129          10.7551586247         292.6627448632       u       B1u (5)
  114    57          10.7698998060         293.0638728018       u       B2u (2)
  115   185          10.7698998060         293.0638728018       u        Au (8)
  116   130          10.7787430417         293.3045094769       u       B1u (5)
  117    84          10.7787430417         293.3045094769       u       B3u (3)
  118    58          10.7816905870         293.3847162642      Au       B2u (2)
  119    85          12.1329682013         330.1548495059       u       B3u (3)
  120   131          12.1329682013         330.1548495059       u       B1u (5)
  121    59          12.1819668505         331.4881705344       u       B2u (2)
  122   186          12.1819668505         331.4881705344       u        Au (8)
  123   132          12.2111663686         332.2827298177       u       B1u (5)
  124    86          12.2111663686         332.2827298177       u       B3u (3)
  125    60          12.2208467145         332.5461454199      Au       B2u (2)
  126    25          12.8655490795         350.0893886525       g        Ag (1)
  127   170          12.8655490795         350.0893886525       g       B2g (7)
  128   150          12.9039267092         351.1336970486       g       B3g (6)
  129   104          12.9039267092         351.1336970486       g       B1g (4)
  130   171          12.9312041976         351.8759552450       g       B2g (7)
  131    26          12.9312041976         351.8759552450       g        Ag (1)
  132   151          12.9475245014         352.3200532892       g       B3g (6)
  133   105          12.9475245014         352.3200532892       g       B1g (4)
  134    27          12.9529576009         352.4678954421      Ag        Ag (1)
  135   172          14.1301214906         384.5001533700       g       B2g (7)
  136    28          14.1301214906         384.5001533700       g        Ag (1)
  137   152          14.1925659802         386.1993543169       g       B3g (6)
  138   106          14.1925659802         386.1993543169       g       B1g (4)
  139    29          14.2133585474         386.7651488351      Ag        Ag (1)
  140    30          19.6709041715         535.2725152340      Ag        Ag (1)
  141    87          22.3344289948         607.7507103982       u       B3u (3)
  142   133          22.3344289948         607.7507103986       u       B1u (5)
  143    61          22.3977966518         609.4750320067      Au       B2u (2)
  144   173          22.6102670879         615.2566465043    XXXX      XXXX (7)
  145    31          22.6102670879         615.2566465043    XXXX      XXXX (1)
  146   153          22.6388102250         616.0333447527    XXXX      XXXX (6)
  147   107          22.6388102250         616.0333447527    XXXX      XXXX (4)
  148   174          22.6621676067         616.6689314202       g       B2g (7)
  149    32          22.6621676067         616.6689314202       g        Ag (1)
  150   154          22.6803373502         617.1633552777       g       B3g (6)
  151   108          22.6803373502         617.1633552777       g       B1g (4)
  152   175          22.6933174706         617.5165623096       g       B2g (7)
  153    33          22.6933174706         617.5165623096       g        Ag (1)
  154   155          22.7011062861         617.7285067548       g       B3g (6)
  155   109          22.7011062861         617.7285067548       g       B1g (4)
  156    34          22.7037026867         617.7991584079      Ag        Ag (1)
  157    88          26.6712600681         725.7618834743       u       B3u (3)
  158   134          26.6712600681         725.7618834743       u       B1u (5)
  159    62          26.7072797463         726.7420287472               B2u (2)
  160   187          26.7072797463         726.7420287472                Au (8)
  161   135          26.7352625947         727.5034807653       u       B1u (5)
  162    89          26.7352625947         727.5034807653       u       B3u (3)
  163   188          26.7552344824         728.0469434564       u        Au (8)
  164    63          26.7552344824         728.0469434564       u       B2u (2)
  165   136          26.7672116798         728.3728595687       u       B1u (5)
  166    90          26.7672116798         728.3728595687       u       B3u (3)
  167    64          26.7712031276         728.4814723832      Au       B2u (2)
  168   137          28.3189366437         770.5974424911       u       B1u (5)
  169    91          28.3189366437         770.5974424911       u       B3u (3)
  170    65          28.3678306942         771.9279172451       u       B2u (2)
  171   189          28.3678306942         771.9279172451       u        Au (8)
  172    92          28.3971158501         772.7248068506       u       B3u (3)
  173   138          28.3971158501         772.7248068506       u       B1u (5)
  174    66          28.4068675844         772.9901650318      Au       B2u (2)
  175   176          31.3343370339         852.6506586149       g       B2g (7)
  176    35          31.3343370339         852.6506586149       g        Ag (1)
  177   156          31.3766342545         853.8016245020       g       B3g (6)
  178   110          31.3766342545         853.8016245020       g       B1g (4)
  179   177          31.4067944003         854.6223237904       g       B2g (7)
  180    36          31.4067944003         854.6223237904       g        Ag (1)
  181   157          31.4248711482         855.1142171086       g       B3g (6)
  182   111          31.4248711482         855.1142171086       g       B1g (4)
  183    37          31.4308936510         855.2780977406      Ag        Ag (1)
  184   178          34.3778961768         935.4701133529       g       B2g (7)
  185    38          34.3778961768         935.4701133529       g        Ag (1)
  186   158          34.4310698262         936.9170419136       g       B3g (6)
  187   112          34.4310698262         936.9170419136       g       B1g (4)
  188    39          34.4488375470         937.4005261768      Ag        Ag (1)
  189    40          99.3780526976        2704.2142934997      Ag        Ag (1)


 
  ORBITAL EIGENVALUES ( BETA)  (1H = 27.2113834 eV)

       MO #        E(hartree)               E(eV)           FULLSYM    COMPSYM
       ----   --------------------   --------------------   -------   ---------
    1     1         -20.6329390234        -561.4508144340      Ag        Ag (1)
    2     2          -1.0854923341         -29.5377480797      Ag        Ag (1)
    3    41          -0.5269453911         -14.3389130676      Au       B2u (2)
  +++++++++++++++++++++++++++++++++++++++++++++++++++++++++++++++++++++++++++++
    4   113           0.0500439235           1.3617643897       u       B1u (5)
    5    67           0.0500439235           1.3617643897       u       B3u (3)
    6    42           0.0821638734           2.2357926599      Au       B2u (2)
    7     3           0.1099767789           2.9926202952      Ag        Ag (1)
    8    68           0.1239474220           3.3727808218       u       B3u (3)
    9   114           0.1239474220           3.3727808218       u       B1u (5)
   10     4           0.3497558069           9.5173393584       g        Ag (1)
   11   159           0.3497558069           9.5173393584       g       B2g (7)
   12    93           0.3528610004           9.6018359702       g       B1g (4)
   13   139           0.3528610004           9.6018359702       g       B3g (6)
   14     5           0.3541074792           9.6357543819      Ag        Ag (1)
   15    43           0.3661957627           9.9646932995      Au       B2u (2)
   16    69           0.4176523286          11.3648976420       u       B3u (3)
   17   115           0.4176523286          11.3648976420       u       B1u (5)
   18     6           0.6056517788          16.4806227595      Ag        Ag (1)
   19    70           0.7865463385          21.4030139797       u       B3u (3)
   20   116           0.7865463385          21.4030139797       u       B1u (5)
   21    44           0.7921750550          21.5561791427       u       B2u (2)
   22   179           0.7921750550          21.5561791427       u        Au (8)
   23    71           0.7956285848          21.6501544654       u       B3u (3)
   24   117           0.7956285848          21.6501544654       u       B1u (5)
   25    45           0.7967843681          21.6816049279      Au       B2u (2)
   26     7           1.0879659242          29.6050578907      Ag        Ag (1)
   27    94           1.0885102526          29.6198698178       g       B1g (4)
   28   140           1.0885102526          29.6198698178       g       B3g (6)
   29   160           1.0931031798          29.7448497202       g       B2g (7)
   30     8           1.0931031798          29.7448497202       g        Ag (1)
   31    46           1.1461706026          31.1888877096      Au       B2u (2)
   32    72           1.1979877273          32.5989033547       u       B3u (3)
   33   118           1.1979877273          32.5989033547       u       B1u (5)
   34     9           2.0237527125          55.0691109655       g        Ag (1)
   35   161           2.0237527125          55.0691109655       g       B2g (7)
   36    95           2.0326170951          55.3103230810       g       B1g (4)
   37   141           2.0326170951          55.3103230810       g       B3g (6)
   38    10           2.0390384024          55.4850557339       g        Ag (1)
   39   162           2.0390384024          55.4850557339       g       B2g (7)
   40   142           2.0429261677          55.5908472075       g       B3g (6)
   41    96           2.0429261677          55.5908472075       g       B1g (4)
   42    11           2.0442273815          55.6262550351      Ag        Ag (1)
   43    12           2.1097966280          57.4104849417      Ag        Ag (1)
   44    73           2.2716271774          61.8141180664       u       B3u (3)
   45   119           2.2716271774          61.8141180664       u       B1u (5)
   46    47           2.2818871176          62.0933052332       u       B2u (2)
   47   180           2.2818871176          62.0933052333       u        Au (8)
   48    74           2.2883267955          62.2685377781       u       B3u (3)
   49   120           2.2883267955          62.2685377781       u       B1u (5)
   50    48           2.2904705046          62.3268710681      Au       B2u (2)
   51    13           2.6387544095          71.8041579341      Ag        Ag (1)
   52    97           2.6410934701          71.8678070094       g       B1g (4)
   53   143           2.6410934701          71.8678070094       g       B3g (6)
   54   163           2.6527326149          72.1845242418       g       B2g (7)
   55    14           2.6527326149          72.1845242418       g        Ag (1)
   56    49           3.0601808112          83.2717533258      Au       B2u (2)
   57    75           3.0891862039          84.0610301893       u       B3u (3)
   58   121           3.0891862039          84.0610301893       u       B1u (5)
   59   122           4.3934401445         119.5515842172       u       B1u (5)
   60    76           4.3934401445         119.5515842172       u       B3u (3)
   61   181           4.4053682681         119.8761649611                Au (8)
   62    50           4.4053682681         119.8761649611               B2u (2)
   63    77           4.4147391373         120.1311592758       u       B3u (3)
   64   123           4.4147391373         120.1311592758       u       B1u (5)
   65    51           4.4214818128         120.3146368049       u       B2u (2)
   66   182           4.4214818128         120.3146368049       u        Au (8)
   67    78           4.4255468571         120.4252522829       u       B3u (3)
   68   124           4.4255468571         120.4252522829       u       B1u (5)
   69    52           4.4269050866         120.4622115864      Au       B2u (2)
   70    79           5.3878621732         146.6111833018       u       B3u (3)
   71   125           5.3878621732         146.6111833018       u       B1u (5)
   72    15           5.3950038748         146.8055188829       g        Ag (1)
   73   164           5.3950038748         146.8055188829       g       B2g (7)
   74    53           5.4033474459         147.0325589938       u       B2u (2)
   75   183           5.4033474459         147.0325589938       u        Au (8)
   76    98           5.4115086233         147.2546359215       g       B1g (4)
   77   144           5.4115086233         147.2546359216       g       B3g (6)
   78    80           5.4131080558         147.2981586911       u       B3u (3)
   79   126           5.4131080558         147.2981586911       u       B1u (5)
   80    54           5.4163697630         147.3869142569      Au       B2u (2)
   81   165           5.4234673879         147.5800504483       g       B2g (7)
   82    16           5.4234673879         147.5800504483       g        Ag (1)
   83    99           5.4307061504         147.7770271901       g       B1g (4)
   84   145           5.4307061504         147.7770271901       g       B3g (6)
   85    17           5.4331293370         147.8429654500      Ag        Ag (1)
   86    18           6.0808454137         165.4682159472       g        Ag (1)
   87   166           6.0808454137         165.4682159472       g       B2g (7)
   88   100           6.0809515195         165.4711032328       g       B1g (4)
   89   146           6.0809515195         165.4711032328       g       B3g (6)
   90    19           6.0813947314         165.4831636435      Ag        Ag (1)
   91    20           6.3481992726         172.7432843074      Ag        Ag (1)
   92   127           7.7183489960         210.0269537454       u       B1u (5)
   93    81           7.7183489960         210.0269537454       u       B3u (3)
   94    55           7.7203468746         210.0813187855      Au       B2u (2)
   95   167           9.3160070468         253.5014395075    XXXX      XXXX (7)
   96    21           9.3160070468         253.5014395075    XXXX      XXXX (1)
   97   101           9.3315230785         253.9236521953    XXXX      XXXX (4)
   98   147           9.3315230785         253.9236521953    XXXX      XXXX (6)
   99    22           9.3443151895         254.2717432319       g        Ag (1)
  100   168           9.3443151895         254.2717432319       g       B2g (7)
  101   102           9.3543236706         254.5440878496       g       B1g (4)
  102   148           9.3543236706         254.5440878496       g       B3g (6)
  103    23           9.3615036467         254.7394649306       g        Ag (1)
  104   169           9.3615036467         254.7394649306       g       B2g (7)
  105   149           9.3658238922         254.8570247886       g       B3g (6)
  106   103           9.3658238922         254.8570247886       g       B1g (4)
  107    24           9.3672660010         254.8962665636      Ag        Ag (1)
  108   128          10.7428289845         292.3272382986       u       B1u (5)
  109    82          10.7428289845         292.3272382986       u       B3u (3)
  110    56          10.7628474695         292.8719689687               B2u (2)
  111   184          10.7628474695         292.8719689687                Au (8)
  112    83          10.7785899398         293.3003433638       u       B3u (3)
  113   129          10.7785899398         293.3003433638       u       B1u (5)
  114    57          10.7899249405         293.6087844130       u       B2u (2)
  115   185          10.7899249405         293.6087844130       u        Au (8)
  116   130          10.7967615202         293.7948172054       u       B1u (5)
  117    84          10.7967615202         293.7948172054       u       B3u (3)
  118    58          10.7990462508         293.8569878845      Au       B2u (2)
  119    85          12.2214395813         332.5622781454       u       B3u (3)
  120   131          12.2214395813         332.5622781454       u       B1u (5)
  121    59          12.2448066970         333.1981296898       u       B2u (2)
  122   186          12.2448066970         333.1981296898       u        Au (8)
  123   132          12.2592459015         333.5910404215       u       B1u (5)
  124    86          12.2592459015         333.5910404215       u       B3u (3)
  125    60          12.2640998113         333.7231220205      Au       B2u (2)
  126    25          12.9276214935         351.7784649101       g        Ag (1)
  127   170          12.9276214935         351.7784649101       g       B2g (7)
  128   150          12.9519934684         352.4416600627       g       B3g (6)
  129   104          12.9519934684         352.4416600627       g       B1g (4)
  130   171          12.9696153408         352.9211755892       g       B2g (7)
  131    26          12.9696153408         352.9211755892       g        Ag (1)
  132   151          12.9802699299         353.2111016969       g       B3g (6)
  133   105          12.9802699299         353.2111016969       g       B1g (4)
  134    27          12.9838347457         353.3081052669      Ag        Ag (1)
  135    28          14.2361725715         387.3859499921       g        Ag (1)
  136   172          14.2361725715         387.3859499921       g       B2g (7)
  137   152          14.2552219764         387.9043106529       g       B3g (6)
  138   106          14.2552219764         387.9043106529       g       B1g (4)
  139    29          14.2620818467         388.0909772114      Ag        Ag (1)
  140    30          19.7233162153         536.6987194538      Ag        Ag (1)
  141    87          22.4022521192         609.5962714383       u       B3u (3)
  142   133          22.4022521192         609.5962714385       u       B1u (5)
  143    61          22.4192081400         610.0576682226      Au       B2u (2)
  144   173          22.6460205518         616.2295477199    XXXX      XXXX (7)
  145    31          22.6460205518         616.2295477199    XXXX      XXXX (1)
  146   153          22.6689373481         616.8531454502    XXXX      XXXX (6)
  147   107          22.6689373481         616.8531454502    XXXX      XXXX (4)
  148   174          22.6878158377         617.3668552695       g       B2g (7)
  149    32          22.6878158377         617.3668552696       g        Ag (1)
  150   154          22.7025772500         617.7685337172       g       B3g (6)
  151   108          22.7025772500         617.7685337172       g       B1g (4)
  152   175          22.7131622603         618.0565664912       g       B2g (7)
  153    33          22.7131622603         618.0565664912       g        Ag (1)
  154   155          22.7195295207         618.2298284559       g       B3g (6)
  155   109          22.7195295207         618.2298284559       g       B1g (4)
  156    34          22.7216546296         618.2876556095      Ag        Ag (1)
  157    88          26.7225609852         727.1578523987       u       B3u (3)
  158   134          26.7225609852         727.1578523987       u       B1u (5)
  159    62          26.7491636476         727.8817476441               B2u (2)
  160   187          26.7491636476         727.8817476441                Au (8)
  161    89          26.7700179870         728.4492230682       u       B3u (3)
  162   135          26.7700179870         728.4492230682       u       B1u (5)
  163    63          26.7849994234         728.8568886801       u       B2u (2)
  164   188          26.7849994234         728.8568886801       u        Au (8)
  165   136          26.7940219023         729.1024028127       u       B1u (5)
  166    90          26.7940219023         729.1024028127       u       B3u (3)
  167    64          26.7970349398         729.1843917297      Au       B2u (2)
  168   137          28.3925123615         772.5995395575       u       B1u (5)
  169    91          28.3925123615         772.5995395575       u       B3u (3)
  170    65          28.4203981052         773.3583492224       u       B2u (2)
  171   189          28.4203981052         773.3583492224       u        Au (8)
  172    92          28.4373671753         773.8201010935       u       B3u (3)
  173   138          28.4373671753         773.8201010935       u       B1u (5)
  174    66          28.4430587395         773.9749764293      Au       B2u (2)
  175   176          31.3968117177         854.3506811874       g       B2g (7)
  176    35          31.3968117177         854.3506811874       g        Ag (1)
  177   156          31.4252399983         855.1242540306       g       B3g (6)
  178   110          31.4252399983         855.1242540306       g       B1g (4)
  179   177          31.4457172767         855.6814691040       g       B2g (7)
  180    36          31.4457172767         855.6814691040       g        Ag (1)
  181   157          31.4580700483         856.0176051074       g       B3g (6)
  182   111          31.4580700483         856.0176051074       g       B1g (4)
  183    37          31.4621985089         856.1299462314      Ag        Ag (1)
  184    38          34.4430333418         937.2425857221       g        Ag (1)
  185   178          34.4430333418         937.2425857221       g       B2g (7)
  186   158          34.4701801701         937.9812884754       g       B3g (6)
  187   112          34.4701801701         937.9812884754       g       B1g (4)
  188    39          34.4794515755         938.2335762415      Ag        Ag (1)
  189    40          99.3959335298        2704.7008556811      Ag        Ag (1)


  VSCF finished.

 @CHECKOUT-I, Total execution time (CPU/WALL):        3.12/       3.32 seconds.
--executable xvscf finished with status     0 in        3.39 seconds (walltime).
 --invoking executable--
/cvmfs/restricted.computecanada.ca/easybuild/software/2020/avx2/Compiler/intel2020/cfour/2.1/bin/xvtran
 @GETMEM-I,  Allocated   19073 MB of main memory.
  Full UHF integral transformation
  The following   1 alpha MOs will be dropped.
    1
  There are 188 active alpha molecular orbitals.
  The following   1 beta MOs will be dropped.
    1
  There are 188 active beta molecular orbitals.
  Transformation of IIII integrals :
  2 passes through the AO integral file were required.
      482321 AO integrals were read.
      558594 MO integrals (Spin case AAAA) were written to HF2AA.
      558594 MO integrals (Spin case BBBB) were written to HF2BB.
     1114658 MO integrals (Spin case AABB) were written to HF2AB.
  Transformation of IIJJ integrals :
  2 passes through the AO integral file were required.
     2366897 AO integrals were read.
     2640590 MO integrals (Spin case AAAA) were written to HF2AA.
     2640591 MO integrals (Spin case BBBB) were written to HF2BB.
     5281181 MO integrals (Spin case AABB) were written to HF2AB.
  Transformation of IJIJ integrals :
  2 passes through the AO integral file were required.
     4119775 AO integrals were read.
     4892090 MO integrals (Spin case AAAA) were written to HF2AA.
     4892090 MO integrals (Spin case BBBB) were written to HF2BB.
     9768930 MO integrals (Spin case AABB) were written to HF2AB.
  Transformation of IJKL integrals :
  2 passes through the AO integral file were required.
    10122549 AO integrals were read.
    11732421 MO integrals (Spin case AAAA) were written to HF2AA.
    11732425 MO integrals (Spin case BBBB) were written to HF2BB.
    23464833 MO integrals (Spin case AABB) were written to HF2AB.
  Summary of active molecular orbitals: 
------------------------------------------------------------------------
                         * Spin case alpha *
 
  Index      Eigenvalue    Symmetry    Index      Eigenvalue    Symmetry
------------------------------------------------------------------------
     1        -1.4043529        1        95         2.0254462        4
     2        -0.6065335        2        96         2.0381673        4
     3        -0.7027009        3        97         2.5697757        4
     4        -0.7027009        5        98         5.3836610        4
     5         0.1029478        1        99         5.4119307        4
     6         0.3417017        1       100         6.0028892        4
     7         0.3505272        1       101         9.3152621        4
     8         0.5755717        1       102         9.3423792        4
     9         1.0313649        1       103         9.3559446        4
    10         1.0605358        1       104        12.9039267        4
    11         2.0143833        1       105        12.9475245        4
    12         2.0333861        1       106        14.1925660        4
    13         2.0397635        1       107        22.6388102        4
    14         2.0514119        1       108        22.6803374        4
    15         2.5265087        1       109        22.7011063        4
    16         2.5829134        1       110        31.3766343        4
    17         5.3588294        1       111        31.4248711        4
    18         5.4013391        1       112        34.4310698        4
    19         5.4154593        1       113         0.0777291        5
    20         5.9454636        1       114         0.3437243        5
    21         6.0215116        1       115         0.7814474        5
    22         6.2779068        1       116         0.7929489        5
    23         9.2966275        1       117         1.0909492        5
    24         9.3305134        1       118         2.2382030        5
    25         9.3508570        1       119         2.2705171        5
    26         9.3576407        1       120         2.9729826        5
    27        12.8655491        1       121         4.3798291        5
    28        12.9312042        1       122         4.4056602        5
    29        12.9529576        1       123         4.4185863        5
    30        14.1301215        1       124         5.3148706        5
    31        14.2133585        1       125         5.3738644        5
    32        19.6709042        1       126         7.6147494        5
    33        22.6102671        1       127        10.7079550        5
    34        22.6621676        1       128        10.7551586        5
    35        22.6933175        1       129        10.7787430        5
    36        22.7037027        1       130        12.1329682        5
    37        31.3343370        1       131        12.2111664        5
    38        31.4067944        1       132        22.3344290        5
    39        31.4308937        1       133        26.6712601        5
    40        34.3778962        1       134        26.7352626        5
    41        34.4488375        1       135        26.7672117        5
    42        99.3780527        1       136        28.3189366        5
    43         0.0813669        2       137        28.3971159        5
    44         0.3596517        2       138         0.3484109        6
    45         0.7886468        2       139         1.0539640        6
    46         0.7943801        2       140         2.0254462        6
    47         1.1284297        2       141         2.0381673        6
    48         2.2585509        2       142         2.5697757        6
    49         2.2744441        2       143         5.3836610        6
    50         3.0329477        2       144         5.4119307        6
    51         4.3943565        2       145         6.0028892        6
    52         4.4137379        2       146         9.3152621        6
    53         4.4202028        2       147         9.3423792        6
    54         5.3519539        2       148         9.3559446        6
    55         5.3810637        2       149        12.9039267        6
    56         7.6899847        2       150        12.9475245        6
    57        10.7345141        2       151        14.1925660        6
    58        10.7698998        2       152        22.6388102        6
    59        10.7816906        2       153        22.6803374        6
    60        12.1819669        2       154        22.7011063        6
    61        12.2208467        2       155        31.3766343        6
    62        22.3977967        2       156        31.4248711        6
    63        26.7072797        2       157        34.4310698        6
    64        26.7552345        2       158         0.3417017        7
    65        26.7712031        2       159         1.0313649        7
    66        28.3678307        2       160         2.0143833        7
    67        28.4068676        2       161         2.0333861        7
    68         0.0777291        3       162         2.5265087        7
    69         0.3437243        3       163         5.3588294        7
    70         0.7814474        3       164         5.4013391        7
    71         0.7929489        3       165         5.9454636        7
    72         1.0909492        3       166         9.2966275        7
    73         2.2382030        3       167         9.3305134        7
    74         2.2705171        3       168         9.3508570        7
    75         2.9729826        3       169        12.8655491        7
    76         4.3798291        3       170        12.9312042        7
    77         4.4056602        3       171        14.1301215        7
    78         4.4185863        3       172        22.6102671        7
    79         5.3148706        3       173        22.6621676        7
    80         5.3738644        3       174        22.6933175        7
    81         7.6147494        3       175        31.3343370        7
    82        10.7079550        3       176        31.4067944        7
    83        10.7551586        3       177        34.3778962        7
    84        10.7787430        3       178         0.7886468        8
    85        12.1329682        3       179         2.2585509        8
    86        12.2111664        3       180         4.3943565        8
    87        22.3344290        3       181         4.4137379        8
    88        26.6712601        3       182         5.3519539        8
    89        26.7352626        3       183        10.7345141        8
    90        26.7672117        3       184        10.7698998        8
[...]
   26.7225609852186        26.7700179869636        26.7940219023437     
   28.3925123614815        28.4373671752940       0.352861000449951     
   1.08851025258132        2.03261709513221        2.04292616771109     
   2.64109347007437        5.41150862331940        5.43070615035865     
   6.08095151946037        9.33152307850995        9.35432367064583     
   9.36582389223924        12.9519934683919        12.9802699298588     
   14.2552219764342        22.6689373481179        22.7025772499759     
   22.7195295207178        31.4252399982955        31.4580700482660     
   34.4701801700892       0.349755806918617        1.09310317976101     
   2.02375271245743        2.03903840236004        2.65273261490271     
   5.39500387484548        5.42346738785294        6.08084541365839     
   9.31600704679708        9.34431518950042        9.36150364668999     
   12.9276214935128        12.9696153408057        14.2361725715173     
   22.6460205518211        22.6878158377477        22.7131622602917     
   31.3968117176792        31.4457172766891        34.4430333417794     
  0.792175055044348        2.28188711762632        4.40536826808666     
   4.42148181282642        5.40334744589896        10.7628474695157     
   10.7899249404941        12.2448066969582        26.7491636475979     
   26.7849994234431        28.4203981052421     
 @CHECKOUT-I, Total execution time (CPU/WALL):       11.26/     214.18 seconds.
--executable xvtran finished with status     0 in      214.24 seconds (walltime).
 --invoking executable--
/cvmfs/restricted.computecanada.ca/easybuild/software/2020/avx2/Compiler/intel2020/cfour/2.1/bin/xintprc
 @GETMEM-I,  Allocated   19073 MB of main memory.
  @GMOIAA-I, Processing MO integrals for spin case AA.
  @GMOIAA-I, Generation of integral list completed.
                      TYPE                NUMBER
                      ----               --------
                      PPPP              18185470
                      PPPH               1579839
                      PPHH                 35028
                      PHPH                 22338
                      PHHH                  1004
                      HHHH                    16

                     TOTAL              19823695
  @GMOIAA-I, Processing MO integrals for spin case BB.
  @GMOIAA-I, Generation of integral list completed.
                      TYPE                NUMBER
                      ----               --------
                      PPPP              18988612
                      PPPH                818409
                      PPHH                  9348
                      PHPH                  7138
                      PHHH                   189
                      HHHH                     4

                     TOTAL              19823700
  @GMOIAB-I, Processing MO integrals for spin case AB.
                      TYPE                NUMBER
                      ----               --------
                      PPPP              37147946
                      PPPH1H             1614587
                      PPPH2H              801134
                      PPHH                 35248
                      PHPH1P                6994
                      PHPH2P               22825
                      PHHH1P                 329
                      PHHH2P                 530
                      HHHH                     9

                     TOTAL              39629602

  @FORMT2-I, Second-order MP correlation energies:
  @FORMT2-I, Singles contribution will be calculated.
            ------------------------------------------------
            E(SCF)                  =    -74.812378273807 a.u.
            E2(AA)                  =     -0.034300900938 a.u.
            E2(BB)                  =     -0.004842649945 a.u.
            E2(AB)                  =     -0.130247732386 a.u.
            E2(SINGLE)              =     -0.004421732942 a.u.
            E2(TOT)                 =     -0.169391283270 a.u.
            Total MP2 energy        =    -74.986191290018 a.u.
            ------------------------------------------------
            ----------------------------------------------
                     Projected spin multiplicities: 
            ----------------------------------------------
             <0|S^2|0>                  =    2.0000000000.
             <0|S^2 T2|0>               =   -0.0000000000.
             Projected <0|S^2 exp(T)|0> =    2.0000000000.
             Approximate spin mult.     =    3.0000000000.
            ----------------------------------------------
   Largest T2 amplitudes for spin case AA:
   i   j   a   b             i   j   a   b             i   j   a   b
-----------------------------------------------------------------------------
[  3   2  72  47]-0.01373 [  4   2 117  47]-0.01373 [  4   3 117  72]-0.01321
[  3   2  72  44]-0.01188 [  4   2 117  44]-0.01188 [  4   2 114  44]-0.01104
[  3   2  69  44]-0.01104 [  4   2 114  47]-0.01098 [  3   2  69  47]-0.01098
[  4   3 159   9] 0.01079 [  4   3 114  72]-0.01053 [  4   3 117  69]-0.01053
[  4   3 162  15] 0.01048 [  4   3 114  69]-0.00962 [  4   2 139  10]-0.00943
-----------------------------------------------------------------------------
   Norm of T2AA vector (    12690 symmetry allowed elements):  0.0799198453.
-----------------------------------------------------------------------------
   Largest T2 amplitudes for spin case BB:
   i   j   a   b             i   j   a   b             i   j   a   b
-----------------------------------------------------------------------------
[  2   1  45   6]-0.00829 [  2   1  42   6]-0.00789 [  2   1  45  12] 0.00784
[  2   1  93  67] 0.00755 [  2   1 139 113] 0.00755 [  2   1  96  67]-0.00659
[  2   1 142 113]-0.00659 [  2   1  42  12] 0.00613 [  2   1 139 112]-0.00602
[  2   1  93  66]-0.00602 [  2   1  48  12] 0.00547 [  2   1 142 112] 0.00510
[  2   1  96  66] 0.00510 [  2   1 139 114] 0.00490 [  2   1  93  68] 0.00490
-----------------------------------------------------------------------------
   Norm of T2BB vector (     2210 symmetry allowed elements):  0.0319773672.
-----------------------------------------------------------------------------
   Largest T2 amplitudes for spin case AB:
       _       _                 _       _                 _       _
   i   j   a   b             i   j   a   b             i   j   a   b
-----------------------------------------------------------------------------
[  2   2  47  45]-0.02239 [  2   2  44  42]-0.01839 [  2   2  44  45]-0.01824
[  2   2  47  42]-0.01789 [  3   2  72  45]-0.01648 [  4   2 117  45]-0.01648
[  3   2  72  42]-0.01362 [  4   2 117  42]-0.01362 [  2   1  47   6]-0.01326
[  2   1  94  67] 0.01315 [  2   1 139 113] 0.01315 [  2   2  47  48]-0.01300
[  4   2 114  45]-0.01298 [  3   2  69  45]-0.01298 [  2   2  50  45]-0.01284
-----------------------------------------------------------------------------
   Norm of T2AB vector (    35248 symmetry allowed elements):  0.1533335682.
-----------------------------------------------------------------------------
 @CHECKOUT-I, Total execution time (CPU/WALL):       15.99/      45.29 seconds.
--executable xintprc finished with status     0 in       45.44 seconds (walltime).
  calling xvcc 
 --invoking executable--
/cvmfs/restricted.computecanada.ca/easybuild/software/2020/avx2/Compiler/intel2020/cfour/2.1/bin/xvcc
 @GETMEM-I,  Allocated   19073 MB of main memory.
   CCSD(T) energy will be calculated.
   The reference state is a ROHF wave function.
   The total correlation energy is -0.173875920395 a.u.
   The total correlation energy is -0.182479025876 a.u.
  Convergence information after     1 iterations: 
  Largest element of residual vector : -0.79160433E-02.
  Largest element of DIIS residual   : -0.79160433E-02.
   The total correlation energy is -0.184904478838 a.u.
  Convergence information after     2 iterations: 
  Largest element of residual vector : -0.30812555E-02.
  Largest element of DIIS residual   : -0.14546147E-02.
   The total correlation energy is -0.185668654712 a.u.
  Convergence information after     3 iterations: 
  Largest element of residual vector : -0.11990378E-02.
  Largest element of DIIS residual   : -0.85805658E-03.
   The total correlation energy is -0.185845147198 a.u.
  Convergence information after     4 iterations: 
  Largest element of residual vector : -0.45504716E-03.
  Largest element of DIIS residual   : -0.30703010E-03.
   The total correlation energy is -0.185866274155 a.u.
  Convergence information after     5 iterations: 
  Largest element of residual vector : -0.19908644E-03.
  Largest element of DIIS residual   :  0.12604901E-03.
   The total correlation energy is -0.185873328301 a.u.
  Convergence information after     6 iterations: 
  Largest element of residual vector :  0.72221598E-04.
  Largest element of DIIS residual   :  0.63087869E-04.
   The total correlation energy is -0.185876425785 a.u.
  Convergence information after     7 iterations: 
  Largest element of residual vector : -0.25874227E-04.
  Largest element of DIIS residual   :  0.17014525E-04.
   The total correlation energy is -0.185877117561 a.u.
  Convergence information after     8 iterations: 
  Largest element of residual vector : -0.96554175E-05.
  Largest element of DIIS residual   : -0.83911022E-05.
   The total correlation energy is -0.185877648658 a.u.
  Convergence information after     9 iterations: 
  Largest element of residual vector : -0.34601426E-05.
  Largest element of DIIS residual   : -0.22310705E-05.
   The total correlation energy is -0.185877870908 a.u.
  Convergence information after    10 iterations: 
  Largest element of residual vector : -0.15076196E-05.
  Largest element of DIIS residual   : -0.17835355E-05.
   The total correlation energy is -0.185877930978 a.u.
  Convergence information after    11 iterations: 
  Largest element of residual vector : -0.73317685E-06.
  Largest element of DIIS residual   : -0.50260544E-06.
   The total correlation energy is -0.185877946033 a.u.
  Convergence information after    12 iterations: 
  Largest element of residual vector : -0.40977244E-06.
  Largest element of DIIS residual   :  0.23781333E-06.
   The total correlation energy is -0.185877951102 a.u.
  Convergence information after    13 iterations: 
  Largest element of residual vector : -0.13366947E-06.
  Largest element of DIIS residual   : -0.12199977E-06.
   The total correlation energy is -0.185877955431 a.u.
  Convergence information after    14 iterations: 
  Largest element of residual vector : -0.71769305E-07.
  Largest element of DIIS residual   :  0.72037341E-07.
   The total correlation energy is -0.185877959234 a.u.
  Convergence information after    15 iterations: 
  Largest element of residual vector : -0.31427175E-07.
  Largest element of DIIS residual   : -0.33632631E-07.
   The total correlation energy is -0.185877961722 a.u.
  Convergence information after    16 iterations: 
  Largest element of residual vector :  0.19013938E-07.
  Largest element of DIIS residual   :  0.95501307E-08.
   The total correlation energy is -0.185877962525 a.u.
  Convergence information after    17 iterations: 
  Largest element of residual vector : -0.47440368E-08.
  Largest element of DIIS residual   : -0.36432604E-08.
   The total correlation energy is -0.185877962648 a.u.
  Convergence information after    18 iterations: 
  Largest element of residual vector : -0.23687429E-08.
  Largest element of DIIS residual   : -0.18398682E-08.
   The total correlation energy is -0.185877962650 a.u.
  Convergence information after    19 iterations: 
  Largest element of residual vector : -0.12714353E-08.
  Largest element of DIIS residual   :  0.10481367E-08.
   The total correlation energy is -0.185877962631 a.u.
  Convergence information after    20 iterations: 
  Largest element of residual vector : -0.47386699E-09.
  Largest element of DIIS residual   : -0.37949056E-09.
   The total correlation energy is -0.185877962631 a.u.
  Convergence information after    21 iterations: 
  Largest element of residual vector : -0.19576265E-09.
  Largest element of DIIS residual   : -0.15134487E-09.
   The total correlation energy is -0.185877962635 a.u.
  Convergence information after    22 iterations: 
  Largest element of residual vector : -0.10214186E-09.
  Largest element of DIIS residual   : -0.82078105E-10.
   The total correlation energy is -0.185877962641 a.u.
  Convergence information after    23 iterations: 
  Largest element of residual vector :  0.48309032E-10.
  Largest element of DIIS residual   :  0.33586242E-10.
  Amplitude equations converged in    23iterations.
   The total correlation energy is -0.185877962643 a.u.
   The CC iterations have converged.

            ----------------------------------------------
                     Projected spin multiplicities: 
            ----------------------------------------------
             <0|S^2|0>                  =    2.0000000000.
             <0|S^2 (T2+T1**2) |0>      =   -0.0000000000.
             <0|S^2 T1|0>               =   -0.0000000000.
             Projected <0|S^2 exp(T)|0> =    2.0000000000.
             Approximate spin mult.     =    3.0000000000.
            ----------------------------------------------
   Largest T1 amplitudes for spin case AA:
   i       a                 i       a                 i       a    
-----------------------------------------------------------------------------
[  1      10    ] 0.01432 [  1      16    ]-0.01371 [  1       8    ] 0.01284
[  2      47    ] 0.01066 [  2      44    ] 0.00988 [  1      14    ]-0.00934
[  1       5    ]-0.00756 [  1      21    ]-0.00617 [  1       7    ]-0.00581
[  2      50    ] 0.00573 [  4     114    ]-0.00500 [  3      69    ]-0.00500
[  2      49    ]-0.00465 [  2      43    ] 0.00402 [  3      68    ]-0.00385
-----------------------------------------------------------------------------
   Norm of T1AA vector (      113 symmetry allowed elements):  0.0344835494.
-----------------------------------------------------------------------------
   Largest T2 amplitudes for spin case AA:
   i   j   a   b             i   j   a   b             i   j   a   b
-----------------------------------------------------------------------------
[  3   2  72  47]-0.01381 [  4   2 117  47]-0.01381 [  4   3 117  72]-0.01377
[  3   2  72  44]-0.01163 [  4   2 117  44]-0.01163 [  4   2 114  47]-0.01117
[  3   2  69  47]-0.01117 [  4   3 114  72]-0.01103 [  4   3 117  69]-0.01103
[  4   2 114  44]-0.01062 [  3   2  69  44]-0.01062 [  4   3 159   9] 0.01038
[  4   3 162  15] 0.01027 [  4   3 114  69]-0.00986 [  4   2 139  10]-0.00975
-----------------------------------------------------------------------------
   Norm of T2AA vector (    12690 symmetry allowed elements):  0.0806689662.
-----------------------------------------------------------------------------
   Largest T1 amplitudes for spin case BB:
   i       a                 i       a                 i       a    
-----------------------------------------------------------------------------
[  2      42    ]-0.02368 [  1       6    ]-0.01717 [  2      41    ]-0.01542
[  1       3    ] 0.01418 [  1       7    ]-0.01312 [  1      13    ] 0.01158
[  2      45    ]-0.01031 [  1       5    ] 0.00630 [  1      12    ] 0.00579
[  1      19    ] 0.00514 [  2      47    ] 0.00413 [  2      53    ]-0.00313
[  2      44    ] 0.00276 [  2      54    ] 0.00219 [  2      48    ] 0.00137
-----------------------------------------------------------------------------
   Norm of T1BB vector (       63 symmetry allowed elements):  0.0430294377.
-----------------------------------------------------------------------------
   Largest T2 amplitudes for spin case BB:
   i   j   a   b             i   j   a   b             i   j   a   b
-----------------------------------------------------------------------------
[  2   1  93  67] 0.00892 [  2   1 139 113] 0.00892 [  2   1 139 112]-0.00711
[  2   1  93  66]-0.00711 [  2   1  45   6]-0.00703 [  2   1  42   6]-0.00698
[  2   1  96  67]-0.00689 [  2   1 142 113]-0.00689 [  2   1  45  12] 0.00632
[  2   1 139 114] 0.00584 [  2   1  93  68] 0.00584 [  2   1 142 112] 0.00535
[  2   1  96  66] 0.00535 [  2   1  42  12] 0.00504 [  2   1 142 114]-0.00502
-----------------------------------------------------------------------------
   Norm of T2BB vector (     2210 symmetry allowed elements):  0.0325851859.
-----------------------------------------------------------------------------
   Largest T2 amplitudes for spin case AB:
       _       _                 _       _                 _       _
   i   j   a   b             i   j   a   b             i   j   a   b
-----------------------------------------------------------------------------
[  2   2  47  45]-0.02507 [  2   2  47  42]-0.02119 [  2   2  44  45]-0.02032
[  2   2  44  42]-0.02012 [  3   2  72  45]-0.01766 [  4   2 117  45]-0.01766
[  3   1   9  67]-0.01622 [  4   1 159  67] 0.01622 [  3   1 159 113] 0.01622
[  4   1   9 113] 0.01622 [  2   1  94  67] 0.01570 [  2   1 139 113] 0.01570
[  3   2  72  42]-0.01529 [  4   2 117  42]-0.01529 [  3   1  15  67] 0.01483
-----------------------------------------------------------------------------
   Norm of T2AB vector (    35248 symmetry allowed elements):  0.1773433691.
-----------------------------------------------------------------------------
       Summary of iterative solution of CC equations 
      -----------------------------------------------------------
                       Correlation           Total
       Iteration         Energy              Energy
      -----------------------------------------------------------
            0        -0.173875920395     -74.986254194202  DIIS 
            1        -0.182479025876     -74.994857299683  DIIS 
            2        -0.184904478838     -74.997282752645  DIIS 
            3        -0.185668654712     -74.998046928518  DIIS 
            4        -0.185845147198     -74.998223421005  DIIS 
            5        -0.185866274155     -74.998244547962  DIIS 
            6        -0.185873328301     -74.998251602107  DIIS 
            7        -0.185876425785     -74.998254699591  DIIS 
            8        -0.185877117561     -74.998255391368  DIIS 
            9        -0.185877648658     -74.998255922465  DIIS 
           10        -0.185877870908     -74.998256144715  DIIS 
           11        -0.185877930978     -74.998256204784  DIIS 
           12        -0.185877946033     -74.998256219840  DIIS 
           13        -0.185877951102     -74.998256224909  DIIS 
           14        -0.185877955431     -74.998256229238  DIIS 
           15        -0.185877959234     -74.998256233041  DIIS 
           16        -0.185877961722     -74.998256235529  DIIS 
           17        -0.185877962525     -74.998256236331  DIIS 
           18        -0.185877962648     -74.998256236454  DIIS 
           19        -0.185877962650     -74.998256236457  DIIS 
           20        -0.185877962631     -74.998256236437  DIIS 
           21        -0.185877962631     -74.998256236438  DIIS 
           22        -0.185877962635     -74.998256236442  DIIS 
           23        -0.185877962643     -74.998256236450  DIIS 
      -----------------------------------------------------------
      A miracle has come to pass. The CC iterations have converged.
 @TRPS2-I, E4ST A   -0.000030356368142
 @TRPS2-I, E4ST B    0.000009035564003
        E(CCSD)           =     -74.998256236450
        E(CCSD(T))        =     -75.002462356366
 @CHECKOUT-I, Total execution time (CPU/WALL):       23.00/      23.07 seconds.
--executable xvcc finished with status     0 in       23.15 seconds (walltime).
  The final electronic energy is       -75.002462356366237 a.u. 
  This computation required                          357.37 seconds (walltime).
Program finished with exit code 0 at: Sat Mar 16 07:38:42 EDT 2024

