 --invoking executable--
/home/nike/cfour_v2.00beta/cfour_v2.00beta/bin/xjoda


   *************************************************************************
         <<<     CCCCCC     CCCCCC   |||     CCCCCC     CCCCCC   >>>
       <<<      CCC        CCC       |||    CCC        CCC         >>>
      <<<      CCC        CCC        |||   CCC        CCC            >>>
    <<<        CCC        CCC        |||   CCC        CCC              >>>
      <<<      CCC        CCC        |||   CCC        CCC            >>>
       <<<      CCC        CCC       |||    CCC        CCC         >>>
         <<<     CCCCCC     CCCCCC   |||     CCCCCC     CCCCCC   >>>
   *************************************************************************

     ****************************************************************
     * CFOUR Coupled-Cluster techniques for Computational Chemistry *
     ****************************************************************
 

   Department of Chemistry                Institut fuer Physikalische Chemie
   University of Texas at Austin          Universitaet Mainz
   Austin, TX  78712, USA                 D-55099 Mainz, Germany
 
                       Version 2.00beta
 
                     blg8635.int.ets1.calculquebec.ca                  
                     So 1. Mär 13:47:48 EST 2020                      
                     integer*8 version is running
 
********************************************************************************
*                          Input from ZMAT file                                *
********************************************************************************
TITLE                                                                           
C                                                                               
Cl 1 R                                                                          
Cl 1 R 2 A                                                                      
Cl 1 R 2 A 3 D                                                                  
Cl 1 R 2 A 3 E                                                                  
                                                                                
R=3.33914606221                                                                 
A=109.4712206                                                                   
D=240.0                                                                         
E=120.0                                                                         
                                                                                
*ACES2(CALC=CCSD(T)                                                             
UNITS=BOHR                                                                      
#GEOM=1.767*10/5.29177210903_CCCBDBreferences1998Kuchitsu_structureOfFreePolyato
#COORD=CARTESIAN                                                                
COORD=INTERNAL                                                                  
PRINT=4                                                                         
JODA_PRINT=4                                                                    
INPUT_MRCC=OFF                                                                  
#CC_PROG=MRCC                                                                   
#FROZEN_CORE=ON                                                                 
DROPMO=1>21                                                                     
CONTRACTION=GENERAL                                                             
#CONTRACTION=SEGMENTED                                                          
RELATIVISTIC=OFF                                                                
#EXCITE=EOMEE                                                                   
#ESTATE_CONV=5                                                                  
#ESTATE_SYM=2/2/2/2/2/2/2/2                                                     
XFORM_TOL=18                                                                    
SAVE_INTS=ON                                                                    
SCF_EXPORDER=6                                                                  
SCF_EXPSTART=5                                                                  
#SCF_DAMPING=1000                                                               
SCF_EXTRAPOLATION=ON                                                            
SCF_CONV=12                                                                     
SCF_MAXCYC=99999                                                                
CC_CONV=9                                                                       
CC_MAXCYC=999                                                                   
T3_EXTRAPOL=ON                                                                  
REFERENCE=RHF                                                                   
CHARGE=+0                                                                       
MULT=1                                                                          
ABCDTYPE=STANDARD                                                               
#OCCUPATION=3-2-2-0-1-0-0-0/3-1-1-0-1-0-0-0                                     
MEM=12                                                                          
MEM_UNIT=GB                                                                     
ECP=OFF                                                                         
BASIS=SPECIAL)                                                                  
                                                                                
C:def2-TZVPP                                                                    
CL:def2-TZVPP                                                                   
CL:def2-TZVPP                                                                   
CL:def2-TZVPP                                                                   
CL:def2-TZVPP                                                                   
                                                                                
C:def2-TZVPP                                                                    
CL:def2-TZVPP                                                                   
CL:def2-TZVPP                                                                   
CL:def2-TZVPP                                                                   
CL:def2-TZVPP                                                                   
                                                                                
********************************************************************************
  @GTFLGS-W, Keyword #GEOM not known and is ignored.
  @GTFLGS-W, Keyword #COORD not known and is ignored.
  @GTFLGS-W, Keyword #CC_PROG not known and is ignored.
  @GTFLGS-W, Keyword #FROZEN_CORE not known and is ignored.
  @GTFLGS-W, Keyword #CONTRACTION not known and is ignored.
  @GTFLGS-W, Keyword #EXCITE not known and is ignored.
  @GTFLGS-W, Keyword #ESTATE_CONV not known and is ignored.
  @GTFLGS-W, Keyword #ESTATE_SYM not known and is ignored.
  @GTFLGS-W, Keyword #SCF_DAMPING not known and is ignored.
  @GTFLGS-W, Keyword #OCCUPATION not known and is ignored.
    -------------------------------------------------------------------
                    CFOUR Control Parameters 
    -------------------------------------------------------------------
        External           Internal           Value            Units
          Name               Name
    -------------------------------------------------------------------
       ABCDTYPE             IABCDT         STANDARD     [  0]   ***   
       ANHARMONIC           IANHAR         OFF          [  0]   ***   
       ANH_ALGORIT          IANALG         STANDARD     [  0]   ***   
       ANH_DERIVAT          IANDER         SECOND       [  1]   ***   
       ANH_STEPSIZ          ICUBST             50000          x 10-6  
       ANH_SYMMETR          IANHSM         ABELIAN      [  0]   ***   
       AO_LADDERS           IAOLAD         SINGLEPASS   [  1]   ***   
       BASIS                IBASIS         SPECIAL      [  0]   ***   
       BREIT                IBREIT         OFF          [  0]   ***   
       BRUCK_CONV           IBRTOL          10D-  4             ***   
       BRUECKNER            IBRKNR             OFF      [  0]   ***   
       BUFFERSIZE           IBUFFS            600               ***   
       CACHE_RECS           ICHREC             10               ***   
       CALCLEVEL            ICLLVL           CCSD(T)    [ 22]   ***   
       CCORBOPT             ICCORB             OFF      [  0] x 0.01  
       CC_CONV              ICCCNV          10D-  9             ***   
       CC_EXPORDER          ICCEOR              5               ***   
       CC_EXTRAPOL          ICCEXT             DIIS     [  1]   ***   
       CC_MAXCYC            ICCCYC            999              cycles 
       CC_PROGRAM           ICCPRO         VCC          [  0]   ***   
       CHARGE               ICHRGE              0               ***   
       CHOLESKY             ICHOLE         OFF          [  0]   ***   
       CIS_CONV             ICISTL              5               ***   
       COMM_SIZE            IPSIZE            ***               ***   
       CONSTANT             ICONST         OLD          [  1]   ***   
       CONTINUUM            ICONTU         NONE         [  0]   ***   
       CONTRACTION          ICNTYP          GENERAL     [  1]   ***   
       COORDINATES          ICOORD         INTERNAL     [  0]   ***   
       CPHF_CONVER          ICPHFT          10D- 16             ***   
       CPHF_MAXCYC          ICPHFC             64              cycles 
       CUBIC                ICUBIC         OFF          [  0]   ***   
       CURVILINEAR          ICURVY            OFF       [  0]   ***   
       DBOC                 IDBOC          OFF          [  0]   ***   
       DCT                  IDCT           OFF          [  0]   ***   
       DERIV_LEV            IDRLVL            ZERO      [  0]   ***   
       DIAG_MRCC            IEOMST          10D-  0             ***   
       DIFF_TYPE            IDIFTY         RELAXED      [  0]   ***   
       DIRECT               IDIRCT         OFF          [  0]   ***   
       DROPMO               IDRPMO   1,  2,  3,  4,  5,  6,  7,  8,
                                     9, 10, 11, 12, 13, 14, 15, 16,
                                    17, 18, 19, 20, 21,
       ECP                  IECP           OFF          [  0]   ***   
       EIGENVECTOR          IVEC                1               ***   
       EL_ANHARM            IELANH         OFF          [  0]   ***   
       EOMFOLLOW            IEOMSR         ENERGY       [  0]   ***   
       EOM_MRCC             IMRCCE         NEW          [  1]   ***   
       EOM_NONIT            EOMNON         OFF          [  0]   ***   
       EOM_NSING            IEOMSI          10D-  0             ***   
       EOM_NSTATES          IMRCCD         DAVIDSON     [  0]   ***   
       EOM_NTRIP            IEOMTR          10D-  0             ***   
       EOM_ORDER            IEXORD         ENERGY       [  0]   ***   
       ESTATE_CONV          IEXTOL          10D-  5             ***   
       ESTATE_DIAG          IEXDIG         ITERATIVE    [  0]   ***   
       ESTATE_LOCK          IESLOC         ON           [  1]   ***   
       ESTATE_MAXC          IEXMXC             20               ***   
       ESTATE_PROP          IEXPRP         OFF          [  0]   ***   
       EVAL_HESS            IRECAL              0            # of cyc.
       EXCITATION           IEXCIT              0               ***   
       EXCITE               IEXCIT         NONE         [  0]   ***   
       FCGRADNEW            IFCGNW         OFF          [  0]   ***   
       FC_FIELD             IFINFC              0             x 10-6  
       FD_CALTYPE           IFDCAL         GRADONLY     [  0]   ***   
       FD_PROJECT           IFDPRJ         OFF          [  1]   ***   
       FD_STEPSIZE          IDISFD              0            10-4 bohr
       FD_USEGROUP          IFDGRP         FULL         [  0]   ***   
       FILE_RECSIZ          IFLREC              4096           words  
       FINITE_PERT          IFIPER              0             x 10-6  
       FIXGEOM              IFIXGM         OFF          [  0]   ***   
       FOCK                 IFOCK          AO           [  1]   ***   
       FREQ_ALGORI          IVIALG         STANDARD     [  0]   ***   
       FROZEN_CORE          IFROCO         OFF          [  0]   ***   
       FROZEN_VIRT          IFROVI         OFF          [  0]   ***   
       GAMMA_ABCD           IGABCD         STORE        [  0]   ***   
       GAMMA_ABCI           IGABCI         STORE        [  0]   ***   
       GENBAS_1             IGNBS1              0               ***   
       GENBAS_2             IGNBS2              0               ***   
       GENBAS_3             IGNBS3              0               ***   
       GENBAS_4             IGNBS4              0               ***   
       GEO_CONV             ICONTL              5              H/bohr 
       GEO_MAXCYC           IOPTCY             50               ***   
       GEO_MAXSTEP          IMXSTP            300            millibohr
       GEO_METHOD           INR            SINGLE_POINT [  5]   ***   
       GIAO                 IGIAO          OFF          [  1]   ***   
       GIMIC                IGIMIC         OFF          [  0]   ***   
       GRID                 IGRID          OFF          [  0]   ***   
       GRID_ALGO            IGALGO         SERIAL       [  0]   ***   
       GUESS                IGUESS            MOREAD    [  0]   ***   
       HBAR                 IHBAR              OFF      [  0]   ***   
       HESS_TYPE            IHESTP         SCF          [  0]   ***   
       HF2_FILE             IHF2Fl         USE          [  1]   ***   
       HFSTABILITY          ISTABL         OFF          [  0]   ***   
       INCORE               INCORE             OFF      [  0]   ***   
       INPUT_MRCC           IMRCC          OFF          [  0]   ***   
       INTEGRALS            INTTYP             VMOL     [  1]   ***   
       JODA_PRINT           IJPRNT              4               ***   
       LINDEP_TOL           ILINDP              8               ***   
       LINEQ_CONV           IZTACN          10D-  7           cycles  
       LINEQ_EXPOR          ILMAXD              5               ***   
       LINEQ_MAXCY          ILMAXC             50               ***   
       LINEQ_TYPE           ILTYPE         DIIS         [  1]   ***   
       LOCK_ORBOCC          ILOCOC             OFF      [  0]   ***   
       MEMORY_SIZE          IMEMSZ         *********           words  
       MEM_UNIT             IMEMU          GB           [  3]   ***   
       MRCC                 IMRCCC         OFF          [  0]   ***   
       MULTIPLICTY          IMULTP              1               ***   
       NEGEVAL              IDIE             ABORT      [  0]   ***   
       NEWNORM              INEWNO         OFF          [  0]   ***   
       NON-HF               INONHF             OFF      [  0]   ***   
       NTOP_TAMP            ITOPT2             15               ***   
       NUC_MODEL            INUCMO         POINT        [  0]   ***   
       OCCUPATION           IOCCU   ESTIMATED BY SCF 
       OPEN-SHELL           IOPEN          SPIN-ORBITAL [  0]   ***   
       ORBITALS             IORBTP           STANDARD   [  0]   ***   
       PARALLEL             IPARAL         ON           [  1]   ***   
       PARA_INT             IPINTS         ON           [  1]   ***   
       PARA_PRINT           IPPRIN              0               ***   
       PERT_ORB             IPTORB         STANDARD     [  0]   ***   
       POINTS               IGRDFD              0               ***   
       PRINT                IPRNT               4               ***   
       PROPS                IPROPS             OFF      [  0]   ***   
       PROP_INTEGR          IINTYP         INTERNAL     [  0]   ***   
       PSI                  IPSI           OFF          [  0]   ***   
       QUARTIC              IQUART         OFF          [  0]   ***   
       RAMAN_INT            IRAMIN         OFF          [  0]   ***   
       RAMAN_ORB            IRAMRE         UNRELAXED    [  0]   ***   
       RDO                  IRDOFM             OFF      [  0]   ***   
       REFERENCE            IREFNC             RHF      [  0]   ***   
       RELATIVIST           IRELAT         OFF          [  0]   ***   
       RELAX_DENS           IRDENS             OFF      [  0]   ***   
       RESET_FLAGS          IRESET             OFF      [  0]   ***   
       RESTART_CC           ICCRES         OFF          [  0]   ***   
       ROT_EVEC             ROTVEC              0               ***   
       SAVE_INTS            ISVINT              ON      [  1]   ***   
       SCALE_ON             ISTCRT              0               ***   
       SCF_CONV             ISCFCV          10D- 12             ***   
       SCF_DAMPING          IDAMP               0             x 10-3  
       SCF_EXPORDE          IRPPOR              6               ***   
       SCF_EXPSTAR          IRPPLS              5               ***   
       SCF_EXTRAPO          IRPP                ON      [  1]   ***   
       SCF_MAXCYC           ISCFCY            ***              cycles 
       SCF_NOSTOP           ISCFST         OFF          [  0]   ***   
       SCF_PRINT            ISCFPR              0               ***   
       SD_FIELD             IFINSD              0             x 10-6  
       SEQUENCE             ISEQUE         OFF          [  0]   ***   
       SOPERT               IPERSO         OFF          [  0]   ***   
       SPHERICAL            IDFGHI             ON       [  1]   ***   
       SPINORBIT            ISOCAL         OFF          [  0]   ***   
       SPINROTATIO          ISRCON         OFF          [  0]   ***   
       SPIN_FLIP            ISPFLP         OFF          [  0]   ***   
       SPIN_ORBIT           ISPORB         OFF          [  0]   ***   
       SPIN_SCAL            ISCSMP         OFF          [  0]   ***   
       SUBGROUP             ISUBGP         DEFAULT      [  0]   ***   
       SUBGRPAXIS           ISBXYZ         X            [  0]   ***   
       SYMMETRY             ISYM             ON         [  0]   ***   
       SYM_CHECK            ISYMCK         OVERRIDE     [  1]   ***   
       T3_EXTRAPOL          IT3EXT         ON           [  1]   ***   
       TAMP_SUM             IEVERY              5               ***   
       TESTSUITE            ITESTS         OFF          [  0]   ***   
       THERMOCH             ITHERM         OFF          [  0]   ***   
       TOL_CHOLESK          ITOLCH          10D-  4             ***   
       TRANGRAD             IRESRM         OFF          [  0]   ***   
       TRANS_INV            ITRAIN         USE          [  0]   ***   
       TREAT_PERT           ITREAT         SIMULTANEOUS [  0]   ***   
       UIJ_THRESHO          IUIJTH              1               ***   
       UNITS                IUNITS         BOHR         [  1]   ***   
       UNOS                 IUNOS          OFF          [  0]   ***   
       UPDATE_HESS          IHUPDT         ON           [  1]   ***   
       VIBPHASE             ISETPH         STANDARD     [  0]   ***   
       VIBRATION            IVIB              NO        [  0]   ***   
       VIB_ALGORIT          IGEALG         STANDARD     [  0]   ***   
       VNATORB              IVNORB         OFF          [  0]   ***   
       VTRAN                IVTRAN         FULL/PARTIAL [  0]   ***   
       XFIELD               IXEFLD              0             x 10-6  
       XFORM_TOL            IXFTOL          10D- 18             ***   
       YFIELD               IYEFLD              0             x 10-6  
       ZFIELD               IZEFLD              0             x 10-6  
    -------------------------------------------------------------------
   5 entries found in Z-matrix 
   Job Title : TITLE                                                                           
 Variable names read by FETCHZ
  1           
  2           
  3           
  4 R         
  5           
  6           
  7 R         
  8 A         
  9           
 10 R         
 11 A         
 12 D         
 13 R         
 14 A         
 15 E         
 Atomic symbols read by FETCHZ
  1 C    
  2 Cl   
  3 Cl   
  4 Cl   
  5 Cl   
 Connectivity matrix read by FETCHZ
  1   0
  2   0
  3   0
  4   1
  5   0
  6   0
  7   1
  8   2
  9   0
 10   1
 11   2
 12   3
 13   1
 14   2
 15   3
   There are  4 unique internal coordinates.
   Of these,  0 will be optimized.
   User supplied Z-matrix: 
--------------------------------------------------------------------------------
       SYMBOL    BOND      LENGTH    ANGLE     ANGLE     DIHED     ANGLE
                  TO      (ANGST)    WRT      (DEG)      WRT      (DEG)
--------------------------------------------------------------------------------
        C    
        Cl         1         R    
        Cl         1         R          2        A    
        Cl         1         R          2        A          3        D    
        Cl         1         R          2        A          3        E    
                  *Initial values for internal coordinates* 
                      Name             Value
                        R               3.3391460622
                        A             109.4712206000
                        D             240.0000000000
                        E             120.0000000000
--------------------------------------------------------------------------------
  1  C          6    12.00000
  2  CL        17    34.96885
  3  CL        17    34.96885
  4  CL        17    34.96885
  5  CL        17    34.96885
@GMETRY-W, Internal coordinate # 12 not within bounds:
   Value was:    4.18879 and has been changed to   -2.09440.
   12.0000000000
   34.9688527210
   34.9688527210
   34.9688527210
   34.9688527210
 After translation to center of mass coordinates 
        0.000000000000    0.000000000000   -0.000000001309
        0.000000000000    0.000000000000    3.339146060901
        3.148177099285    0.000000000000   -1.113048686817
       -1.574088549642    2.726401343593   -1.113048686817
       -1.574088549642   -2.726401343593   -1.113048686817
  Inertia tensor (amu*bohr**2)
 1039.73090    0.00000   -0.00000
    0.00000 1039.73090   -0.00000
   -0.00000   -0.00000 1039.73090
    Inertia tensor:
      ****************    0.000000000000   -0.000000000000
        0.000000000000  ****************   -0.000000000000
       -0.000000000000   -0.000000000000  ****************
    Principal axis orientation for molecular system: 
        0.000000000000    0.000000000000   -0.000000001309
        0.000000000000    0.000000000000    3.339146060901
        2.815815199684    1.407907599842   -1.113048686817
       -2.627191347486    1.734613695367   -1.113048686817
       -0.188623852198   -3.142521295209   -1.113048686817
    Diagonalized inertia tensor:
      ****************    0.000000000000    0.000000000000
        0.000000000000  ****************    0.000000000000
        0.000000000000    0.000000000000  ****************
    Eigenvectors of inertia tensor: 
        0.894427191000    0.447213595500    0.000000000000
       -0.447213595500    0.894427191000    0.000000000000
        0.000000000000    0.000000000000    1.000000000000
 factor:   60.1997200000000     
   Rotational constants (in cm-1): 
          0.0578993278             0.0578993278             0.0578993278
   Rotational constants (in MHz): 
       1735.7784233386          1735.7784244468          1735.7784244468
  @SYMMETRY-I, Handedness of inertial frame: 1.00000
  @SYMMETRY-I, The symmetry group is 2-fold degenerate.
  @SYMMETRY-I, The molecule belongs to a point group with doubly degenerate representations.
  @SYMMETRY-I, Z is a C[ 3] axis.
  @SYMMETRY-I, The highest order rotational axis is C[ 3] about Z.
   Principal axis orientation for molecule:
        0.000000000000   -0.000000000000   -0.000000001309
        0.000000000000   -0.000000000000    3.339146060901
       -1.574088549642   -2.726401343593   -1.113048686817
        3.148177099285    0.000000000000   -1.113048686817
       -1.574088549642    2.726401343593   -1.113048686817
   Reflection in plane  2 is a valid symmetry operation.
  Symmetry bits:    2   0   0
********************************************************************************
   The full molecular point group is C3v .
   The largest Abelian subgroup of the full molecular point group is C s .
   The computational point group is C s .
********************************************************************************
--------------------------------------------------------------------------------
   Analysis of internal coordinates specified by Z-matrix 
--------------------------------------------------------------------------------
   *The nuclear repulsion energy is  440.188532071487543 a.u.
   *There are   3 degrees of freedom within the tot. symm. molecular subspace.
   *Z-matrix requests optimization of   0 coordinates.
   *The optimization is constrained.
   *The following   1 parameters can have non-zero 
    derivatives within the totally symmetric subspace:
             R    [ 1]
   *The following   0 parameters are to be optimized:

   *The following coordinates must be varied in an  unconstrained optimization.
             R    [ 1]
--------------------------------------------------------------------------------
 ----------------------------------------------------------------
 Z-matrix   Atomic            Coordinates (in bohr)
  Symbol    Number           X              Y              Z
 ----------------------------------------------------------------
     C         6        -0.00000000     0.00000000    -0.00000000
     CL       17         3.33914606     0.00000000    -0.00000000
     CL       17        -1.11304869    -1.57408855    -2.72640134
     CL       17        -1.11304869     3.14817710     0.00000000
     CL       17        -1.11304869    -1.57408855     2.72640134
 ----------------------------------------------------------------
   Interatomic distance matrix (Angstroms) 
 
                 C             CL            CL            CL            CL   
                [ 1]        [ 2]        [ 3]        [ 4]        [ 5]
  C    [ 1]     0.00000
  CL   [ 2]     1.76700     0.00000
  CL   [ 3]     1.76700     2.88550     0.00000
  CL   [ 4]     1.76700     2.88550     2.88550     0.00000
  CL   [ 5]     1.76700     2.88550     2.88550     2.88550     0.00000
  Inertia tensor (amu*bohr**2)
 1039.73090   -0.00000    0.00000
   -0.00000 1039.73090   -0.00000
    0.00000   -0.00000 1039.73090
   Rotational constants (in cm-1): 
          0.0578993278             0.0578993278             0.0578993278
   Rotational constants (in MHz): 
       1735.7784233386          1735.7784244468          1735.7784244468
  @GTFLGS-W, Keyword #GEOM not known and is ignored.
  @GTFLGS-W, Keyword #COORD not known and is ignored.
  @GTFLGS-W, Keyword #CC_PROG not known and is ignored.
  @GTFLGS-W, Keyword #FROZEN_CORE not known and is ignored.
  @GTFLGS-W, Keyword #CONTRACTION not known and is ignored.
  @GTFLGS-W, Keyword #EXCITE not known and is ignored.
  @GTFLGS-W, Keyword #ESTATE_CONV not known and is ignored.
  @GTFLGS-W, Keyword #ESTATE_SYM not known and is ignored.
  @GTFLGS-W, Keyword #SCF_DAMPING not known and is ignored.
  @GTFLGS-W, Keyword #OCCUPATION not known and is ignored.
  There are  199 basis functions.
 @GEOPT-W, Archive file not created for single-point calculation.
  @CHECKOUT-I, Total execution time (CPU/WALL):        0.59/       2.25 seconds.
--executable xjoda finished with status     0 in        9.61 seconds (walltime).
 --invoking executable--
/home/nike/cfour_v2.00beta/cfour_v2.00beta/bin/xvmol
 Serial version of molecule started
********************************************************************************
                    Input from MOL file
********************************************************************************
INTGRL        1    0    1    0    0    0    0    0    0                         
         *** CFOUR Program System (Release V0.1) ***                            
TITLE                                                                           
    4    1 Z          0.10E-08              0    0                              
   9999.00      3.00                                                            
          6.00000000    1    4    1    1    1    1                              
C #1  -0.000000001309042   0.000000000000000  -0.000000000000000                
   11    5                                                                      
   13575.3496820000       2.224581435200000E-004  0.000000000000000E+000        
  0.000000000000000E+000  0.000000000000000E+000  0.000000000000000E+000        
   2035.23336800000       1.723273825200000E-003  0.000000000000000E+000        
  0.000000000000000E+000  0.000000000000000E+000  0.000000000000000E+000        
   463.225623590000       8.925571531400001E-003  0.000000000000000E+000        
  0.000000000000000E+000  0.000000000000000E+000  0.000000000000000E+000        
   131.200195980000       3.572798450200000E-002  0.000000000000000E+000        
  0.000000000000000E+000  0.000000000000000E+000  0.000000000000000E+000        
   42.8530158910000       0.110762599310000       0.000000000000000E+000        
  0.000000000000000E+000  0.000000000000000E+000  0.000000000000000E+000        
   15.5841857660000       0.242956276260000       0.000000000000000E+000        
  0.000000000000000E+000  0.000000000000000E+000  0.000000000000000E+000        
   6.20671385080000       0.000000000000000E+000  0.414402634480000             
  0.000000000000000E+000  0.000000000000000E+000  0.000000000000000E+000        
   2.57648965270000       0.000000000000000E+000  0.237449686550000             
  0.000000000000000E+000  0.000000000000000E+000  0.000000000000000E+000        
  0.576963394190000       0.000000000000000E+000  0.000000000000000E+000        
   1.00000000000000       0.000000000000000E+000  0.000000000000000E+000        
  0.229728313580000       0.000000000000000E+000  0.000000000000000E+000        
  0.000000000000000E+000   1.00000000000000       0.000000000000000E+000        
  9.516444002799999E-002  0.000000000000000E+000  0.000000000000000E+000        
  0.000000000000000E+000  0.000000000000000E+000   1.00000000000000             
    6    3                                                                      
   34.6972322440000       5.333365780500000E-003  0.000000000000000E+000        
  0.000000000000000E+000                                                        
   7.95826228260000       3.586410909200000E-002  0.000000000000000E+000        
  0.000000000000000E+000                                                        
   2.37808268830000       0.142158733290000       0.000000000000000E+000        
  0.000000000000000E+000                                                        
  0.814332081830000       0.342704718450000       0.000000000000000E+000        
  0.000000000000000E+000                                                        
  0.288875472530000       0.000000000000000E+000  0.464458224330000             
  0.000000000000000E+000                                                        
  0.100568236710000       0.000000000000000E+000  0.000000000000000E+000        
  0.249557898740000                                                             
    2    2                                                                      
   1.09700000000000        1.00000000000000       0.000000000000000E+000        
  0.318000000000000       0.000000000000000E+000   1.00000000000000             
    1    1                                                                      
  0.761000000000000        1.00000000000000                                     
         17.00000000    1    4    1    1    1    1                              
CL#2   3.339146060900958   0.000000000000000  -0.000000000000000                
   14    5                                                                      
   69507.9909450000       5.431489749700000E-004  0.000000000000000E+000        
  0.000000000000000E+000  0.000000000000000E+000  0.000000000000000E+000        
   10426.1568800000       4.199046396100000E-003  0.000000000000000E+000        
  0.000000000000000E+000  0.000000000000000E+000  0.000000000000000E+000        
   2373.23340610000       2.159214167900000E-002  0.000000000000000E+000        
  0.000000000000000E+000  0.000000000000000E+000  0.000000000000000E+000        
   671.564200710000       8.459885009400001E-002  0.000000000000000E+000        
  0.000000000000000E+000  0.000000000000000E+000  0.000000000000000E+000        
   218.419997900000       0.247572497240000       0.000000000000000E+000        
  0.000000000000000E+000  0.000000000000000E+000  0.000000000000000E+000        
   77.5722497140000       0.470169302280000       0.000000000000000E+000        
  0.000000000000000E+000  0.000000000000000E+000  0.000000000000000E+000        
   28.8888152770000       0.374363707160000       0.000000000000000E+000        
  0.000000000000000E+000  0.000000000000000E+000  0.000000000000000E+000        
   127.105271850000       0.000000000000000E+000  2.518216660300000E-002        
  0.000000000000000E+000  0.000000000000000E+000  0.000000000000000E+000        
   39.3395829610000       0.000000000000000E+000  0.107861124560000             
  0.000000000000000E+000  0.000000000000000E+000  0.000000000000000E+000        
   7.67406799890000       0.000000000000000E+000 -0.274088215740000             
  0.000000000000000E+000  0.000000000000000E+000  0.000000000000000E+000        
   3.87456276300000       0.000000000000000E+000  0.000000000000000E+000        
   1.32138750140000       0.000000000000000E+000  0.000000000000000E+000        
   1.83858325730000       0.000000000000000E+000  0.000000000000000E+000        
  0.686369553680000       0.000000000000000E+000  0.000000000000000E+000        
  0.502290575420000       0.000000000000000E+000  0.000000000000000E+000        
  0.000000000000000E+000   1.00000000000000       0.000000000000000E+000        
  0.179627234200000       0.000000000000000E+000  0.000000000000000E+000        
  0.000000000000000E+000  0.000000000000000E+000   1.00000000000000             
    9    5                                                                      
   666.504232840000       2.363266383600000E-003  0.000000000000000E+000        
  0.000000000000000E+000  0.000000000000000E+000  0.000000000000000E+000        
   157.642416900000       1.887930037400000E-002  0.000000000000000E+000        
  0.000000000000000E+000  0.000000000000000E+000  0.000000000000000E+000        
   50.2625209780000       8.720634127300000E-002  0.000000000000000E+000        
  0.000000000000000E+000  0.000000000000000E+000  0.000000000000000E+000        
   18.5360781050000       0.252856129700000       0.000000000000000E+000        
  0.000000000000000E+000  0.000000000000000E+000  0.000000000000000E+000        
   7.29405327770000       0.435071548200000       0.000000000000000E+000        
  0.000000000000000E+000  0.000000000000000E+000  0.000000000000000E+000        
   2.94332489950000       0.000000000000000E+000  0.350265131650000             
  0.000000000000000E+000  0.000000000000000E+000  0.000000000000000E+000        
   1.04049708180000       0.000000000000000E+000  0.000000000000000E+000        
   1.00000000000000       0.000000000000000E+000  0.000000000000000E+000        
  0.384564150800000       0.000000000000000E+000  0.000000000000000E+000        
  0.000000000000000E+000   1.00000000000000       0.000000000000000E+000        
  0.130696427320000       0.000000000000000E+000  0.000000000000000E+000        
  0.000000000000000E+000  0.000000000000000E+000   1.00000000000000             
    3    3                                                                      
  0.339000000000000        1.00000000000000       0.000000000000000E+000        
  0.000000000000000E+000                                                        
   4.61000000000000       0.000000000000000E+000   1.00000000000000             
  0.000000000000000E+000                                                        
   1.01100000000000       0.000000000000000E+000  0.000000000000000E+000        
   1.00000000000000                                                             
    1    1                                                                      
  0.706000000000000        1.00000000000000                                     
         17.00000000    1    4    1    1    1    1                              
CL#3  -1.113048686817248  -1.574088549642381  -2.726401343593007                
   14    5                                                                      
   69507.9909450000       5.431489749700000E-004  0.000000000000000E+000        
  0.000000000000000E+000  0.000000000000000E+000  0.000000000000000E+000        
   10426.1568800000       4.199046396100000E-003  0.000000000000000E+000        
  0.000000000000000E+000  0.000000000000000E+000  0.000000000000000E+000        
   2373.23340610000       2.159214167900000E-002  0.000000000000000E+000        
  0.000000000000000E+000  0.000000000000000E+000  0.000000000000000E+000        
   671.564200710000       8.459885009400001E-002  0.000000000000000E+000        
  0.000000000000000E+000  0.000000000000000E+000  0.000000000000000E+000        
   218.419997900000       0.247572497240000       0.000000000000000E+000        
  0.000000000000000E+000  0.000000000000000E+000  0.000000000000000E+000        
   77.5722497140000       0.470169302280000       0.000000000000000E+000        
  0.000000000000000E+000  0.000000000000000E+000  0.000000000000000E+000        
   28.8888152770000       0.374363707160000       0.000000000000000E+000        
  0.000000000000000E+000  0.000000000000000E+000  0.000000000000000E+000        
   127.105271850000       0.000000000000000E+000  2.518216660300000E-002        
  0.000000000000000E+000  0.000000000000000E+000  0.000000000000000E+000        
   39.3395829610000       0.000000000000000E+000  0.107861124560000             
  0.000000000000000E+000  0.000000000000000E+000  0.000000000000000E+000        
   7.67406799890000       0.000000000000000E+000 -0.274088215740000             
  0.000000000000000E+000  0.000000000000000E+000  0.000000000000000E+000        
   3.87456276300000       0.000000000000000E+000  0.000000000000000E+000        
   1.32138750140000       0.000000000000000E+000  0.000000000000000E+000        
   1.83858325730000       0.000000000000000E+000  0.000000000000000E+000        
  0.686369553680000       0.000000000000000E+000  0.000000000000000E+000        
  0.502290575420000       0.000000000000000E+000  0.000000000000000E+000        
  0.000000000000000E+000   1.00000000000000       0.000000000000000E+000        
  0.179627234200000       0.000000000000000E+000  0.000000000000000E+000        
  0.000000000000000E+000  0.000000000000000E+000   1.00000000000000             
    9    5                                                                      
   666.504232840000       2.363266383600000E-003  0.000000000000000E+000        
  0.000000000000000E+000  0.000000000000000E+000  0.000000000000000E+000        
   157.642416900000       1.887930037400000E-002  0.000000000000000E+000        
  0.000000000000000E+000  0.000000000000000E+000  0.000000000000000E+000        
   50.2625209780000       8.720634127300000E-002  0.000000000000000E+000        
  0.000000000000000E+000  0.000000000000000E+000  0.000000000000000E+000        
   18.5360781050000       0.252856129700000       0.000000000000000E+000        
  0.000000000000000E+000  0.000000000000000E+000  0.000000000000000E+000        
   7.29405327770000       0.435071548200000       0.000000000000000E+000        
  0.000000000000000E+000  0.000000000000000E+000  0.000000000000000E+000        
   2.94332489950000       0.000000000000000E+000  0.350265131650000             
  0.000000000000000E+000  0.000000000000000E+000  0.000000000000000E+000        
   1.04049708180000       0.000000000000000E+000  0.000000000000000E+000        
   1.00000000000000       0.000000000000000E+000  0.000000000000000E+000        
  0.384564150800000       0.000000000000000E+000  0.000000000000000E+000        
  0.000000000000000E+000   1.00000000000000       0.000000000000000E+000        
  0.130696427320000       0.000000000000000E+000  0.000000000000000E+000        
  0.000000000000000E+000  0.000000000000000E+000   1.00000000000000             
    3    3                                                                      
  0.339000000000000        1.00000000000000       0.000000000000000E+000        
  0.000000000000000E+000                                                        
   4.61000000000000       0.000000000000000E+000   1.00000000000000             
  0.000000000000000E+000                                                        
   1.01100000000000       0.000000000000000E+000  0.000000000000000E+000        
   1.00000000000000                                                             
    1    1                                                                      
  0.706000000000000        1.00000000000000                                     
         17.00000000    1    4    1    1    1    1                              
CL#4  -1.113048686817248   3.148177099284760   0.000000000000000                
   14    5                                                                      
   69507.9909450000       5.431489749700000E-004  0.000000000000000E+000        
  0.000000000000000E+000  0.000000000000000E+000  0.000000000000000E+000        
   10426.1568800000       4.199046396100000E-003  0.000000000000000E+000        
  0.000000000000000E+000  0.000000000000000E+000  0.000000000000000E+000        
   2373.23340610000       2.159214167900000E-002  0.000000000000000E+000        
  0.000000000000000E+000  0.000000000000000E+000  0.000000000000000E+000        
   671.564200710000       8.459885009400001E-002  0.000000000000000E+000        
  0.000000000000000E+000  0.000000000000000E+000  0.000000000000000E+000        
   218.419997900000       0.247572497240000       0.000000000000000E+000        
  0.000000000000000E+000  0.000000000000000E+000  0.000000000000000E+000        
   77.5722497140000       0.470169302280000       0.000000000000000E+000        
  0.000000000000000E+000  0.000000000000000E+000  0.000000000000000E+000        
   28.8888152770000       0.374363707160000       0.000000000000000E+000        
  0.000000000000000E+000  0.000000000000000E+000  0.000000000000000E+000        
   127.105271850000       0.000000000000000E+000  2.518216660300000E-002        
  0.000000000000000E+000  0.000000000000000E+000  0.000000000000000E+000        
   39.3395829610000       0.000000000000000E+000  0.107861124560000             
  0.000000000000000E+000  0.000000000000000E+000  0.000000000000000E+000        
   7.67406799890000       0.000000000000000E+000 -0.274088215740000             
  0.000000000000000E+000  0.000000000000000E+000  0.000000000000000E+000        
   3.87456276300000       0.000000000000000E+000  0.000000000000000E+000        
   1.32138750140000       0.000000000000000E+000  0.000000000000000E+000        
   1.83858325730000       0.000000000000000E+000  0.000000000000000E+000        
  0.686369553680000       0.000000000000000E+000  0.000000000000000E+000        
  0.502290575420000       0.000000000000000E+000  0.000000000000000E+000        
  0.000000000000000E+000   1.00000000000000       0.000000000000000E+000        
  0.179627234200000       0.000000000000000E+000  0.000000000000000E+000        
  0.000000000000000E+000  0.000000000000000E+000   1.00000000000000             
    9    5                                                                      
   666.504232840000       2.363266383600000E-003  0.000000000000000E+000        
  0.000000000000000E+000  0.000000000000000E+000  0.000000000000000E+000        
   157.642416900000       1.887930037400000E-002  0.000000000000000E+000        
  0.000000000000000E+000  0.000000000000000E+000  0.000000000000000E+000        
   50.2625209780000       8.720634127300000E-002  0.000000000000000E+000        
  0.000000000000000E+000  0.000000000000000E+000  0.000000000000000E+000        
   18.5360781050000       0.252856129700000       0.000000000000000E+000        
  0.000000000000000E+000  0.000000000000000E+000  0.000000000000000E+000        
   7.29405327770000       0.435071548200000       0.000000000000000E+000        
  0.000000000000000E+000  0.000000000000000E+000  0.000000000000000E+000        
   2.94332489950000       0.000000000000000E+000  0.350265131650000             
  0.000000000000000E+000  0.000000000000000E+000  0.000000000000000E+000        
   1.04049708180000       0.000000000000000E+000  0.000000000000000E+000        
   1.00000000000000       0.000000000000000E+000  0.000000000000000E+000        
  0.384564150800000       0.000000000000000E+000  0.000000000000000E+000        
  0.000000000000000E+000   1.00000000000000       0.000000000000000E+000        
  0.130696427320000       0.000000000000000E+000  0.000000000000000E+000        
  0.000000000000000E+000  0.000000000000000E+000   1.00000000000000             
    3    3                                                                      
  0.339000000000000        1.00000000000000       0.000000000000000E+000        
  0.000000000000000E+000                                                        
   4.61000000000000       0.000000000000000E+000   1.00000000000000             
  0.000000000000000E+000                                                        
   1.01100000000000       0.000000000000000E+000  0.000000000000000E+000        
   1.00000000000000                                                             
    1    1                                                                      
  0.706000000000000        1.00000000000000                                     
FINISH                                                                          
 
********************************************************************************
 One- and two-electron integrals over symmetry-adapted AOs are calculated.

  Spherical harmonics are used.
  
   4 types of atoms
   1 symmetry operations

   Reflection in the XY-plane
  
  Integrals less than  0.10E-13 are neglected.

  Atomic type number  1 :
  -----------------------

    Nuclear charge:                        6
    number of symmetry independent atoms:  1
    highest orbital type:                  f

      1 groups of CGTOs of s type
      1 groups of CGTOs of p type
      1 groups of CGTOs of d type
      1 groups of CGTOs of f type

    nuclear coordinates (in a.u.) are :

    C #1       -0.000000001309042        0.000000000000000        0.000000000000000
  
   Basis function not normalized: 
   Center (as ordered in MOL file):   1
   Angular Momentum type          : s
   Offset within angular momentum :  1
   <chi|chi>                      :    2.7261534527
   Basis function not normalized: 
   Center (as ordered in MOL file):   1
   Angular Momentum type          : s
   Offset within angular momentum :  2
   <chi|chi>                      :    1.5828883092
   Basis function not normalized: 
   Center (as ordered in MOL file):   1
   Angular Momentum type          : p
   Offset within angular momentum :  1
   <chi|chi>                      :    2.1238408295
   Basis function not normalized: 
   Center (as ordered in MOL file):   1
   Angular Momentum type          : p
   Offset within angular momentum :  2
   <chi|chi>                      :    2.1530461678
   Basis function not normalized: 
   Center (as ordered in MOL file):   1
   Angular Momentum type          : p
   Offset within angular momentum :  3
   <chi|chi>                      :    4.0070861513
  Atomic type number  2 :
  -----------------------

    Nuclear charge:                       17
    number of symmetry independent atoms:  1
    highest orbital type:                  f

      1 groups of CGTOs of s type
      1 groups of CGTOs of p type
      1 groups of CGTOs of d type
      1 groups of CGTOs of f type

    nuclear coordinates (in a.u.) are :

    CL#2        3.339146060900958        0.000000000000000        0.000000000000000
  
   Basis function not normalized: 
   Center (as ordered in MOL file):   2
   Angular Momentum type          : s
   Offset within angular momentum :  1
   <chi|chi>                      :    0.9473899799
   Basis function not normalized: 
   Center (as ordered in MOL file):   2
   Angular Momentum type          : s
   Offset within angular momentum :  2
   <chi|chi>                      :    4.4847960196
   Basis function not normalized: 
   Center (as ordered in MOL file):   2
   Angular Momentum type          : s
   Offset within angular momentum :  3
   <chi|chi>                      :    0.5092890735
   Basis function not normalized: 
   Center (as ordered in MOL file):   2
   Angular Momentum type          : p
   Offset within angular momentum :  1
   <chi|chi>                      :    1.4176357109
   Basis function not normalized: 
   Center (as ordered in MOL file):   2
   Angular Momentum type          : p
   Offset within angular momentum :  2
   <chi|chi>                      :    2.8549801554
  Atomic type number  3 :
  -----------------------

    Nuclear charge:                       17
    number of symmetry independent atoms:  1
    highest orbital type:                  f

      1 groups of CGTOs of s type
      1 groups of CGTOs of p type
      1 groups of CGTOs of d type
      1 groups of CGTOs of f type

    nuclear coordinates (in a.u.) are :

    CL#3       -1.113048686817248       -1.574088549642381       -2.726401343593007
  
   Basis function not normalized: 
   Center (as ordered in MOL file):   3
   Angular Momentum type          : s
   Offset within angular momentum :  1
   <chi|chi>                      :    0.9473899799
   Basis function not normalized: 
   Center (as ordered in MOL file):   3
   Angular Momentum type          : s
   Offset within angular momentum :  2
   <chi|chi>                      :    4.4847960196
   Basis function not normalized: 
   Center (as ordered in MOL file):   3
   Angular Momentum type          : s
   Offset within angular momentum :  3
   <chi|chi>                      :    0.5092890735
   Basis function not normalized: 
   Center (as ordered in MOL file):   3
   Angular Momentum type          : p
   Offset within angular momentum :  1
   <chi|chi>                      :    1.4176357109
   Basis function not normalized: 
   Center (as ordered in MOL file):   3
   Angular Momentum type          : p
   Offset within angular momentum :  2
   <chi|chi>                      :    2.8549801554
  Atomic type number  4 :
  -----------------------

    Nuclear charge:                       17
    number of symmetry independent atoms:  1
    highest orbital type:                  f

      1 groups of CGTOs of s type
      1 groups of CGTOs of p type
      1 groups of CGTOs of d type
      1 groups of CGTOs of f type

    nuclear coordinates (in a.u.) are :

    CL#4       -1.113048686817248        3.148177099284760        0.000000000000000
  
   Basis function not normalized: 
   Center (as ordered in MOL file):   4
   Angular Momentum type          : s
   Offset within angular momentum :  1
   <chi|chi>                      :    0.9473899799
   Basis function not normalized: 
   Center (as ordered in MOL file):   4
   Angular Momentum type          : s
   Offset within angular momentum :  2
   <chi|chi>                      :    4.4847960196
   Basis function not normalized: 
   Center (as ordered in MOL file):   4
   Angular Momentum type          : s
   Offset within angular momentum :  3
   <chi|chi>                      :    0.5092890735
   Basis function not normalized: 
   Center (as ordered in MOL file):   4
   Angular Momentum type          : p
   Offset within angular momentum :  1
   <chi|chi>                      :    1.4176357109
   Basis function not normalized: 
   Center (as ordered in MOL file):   4
   Angular Momentum type          : p
   Offset within angular momentum :  2
   <chi|chi>                      :    2.8549801554
   Internuclear distances (A) :

     for atom C #1 (coordinates :  -0.00000   0.00000   0.00000)

     CL#2   1     distance is  1.767
     CL#3   1     distance is  1.767
     CL#4   1     distance is  1.767

     for atom CL#2 (coordinates :   3.33915   0.00000   0.00000)

     CL#3   1     distance is  2.885
     CL#4   1     distance is  2.885

     for atom CL#3 (coordinates :  -1.11305  -1.57409  -2.72640)

     CL#3   2     distance is  2.885
     CL#4   1     distance is  2.885

     for atom CL#4 (coordinates :  -1.11305   3.14818   0.00000)


   Group multiplication table :

         1   2
         2   1

   Gaussian basis information :

   atom                 exponent      coefficients

 C #1  1    S   
+                 1   13575.349682   0.0002225   0.0000000   0.0000000   0.0000000   0.0000000
                  2    2035.233368   0.0017233   0.0000000   0.0000000   0.0000000   0.0000000
                  3     463.225624   0.0089256   0.0000000   0.0000000   0.0000000   0.0000000
                  4     131.200196   0.0357280   0.0000000   0.0000000   0.0000000   0.0000000
                  5      42.853016   0.1107626   0.0000000   0.0000000   0.0000000   0.0000000
                  6      15.584186   0.2429563   0.0000000   0.0000000   0.0000000   0.0000000
                  7       6.206714   0.0000000   0.4144026   0.0000000   0.0000000   0.0000000
                  8       2.576490   0.0000000   0.2374497   0.0000000   0.0000000   0.0000000
                  9       0.576963   0.0000000   0.0000000   1.0000000   0.0000000   0.0000000
                 10       0.229728   0.0000000   0.0000000   0.0000000   1.0000000   0.0000000
                 11       0.095164   0.0000000   0.0000000   0.0000000   0.0000000   1.0000000

 C #1  1    X   
+                12      34.697232   0.0053334   0.0000000   0.0000000
                 13       7.958262   0.0358641   0.0000000   0.0000000
                 14       2.378083   0.1421587   0.0000000   0.0000000
                 15       0.814332   0.3427047   0.0000000   0.0000000
                 16       0.288875   0.0000000   0.4644582   0.0000000
                 17       0.100568   0.0000000   0.0000000   0.2495579

 C #1  1    Y   
+                18      34.697232   0.0053334   0.0000000   0.0000000
                 19       7.958262   0.0358641   0.0000000   0.0000000
                 20       2.378083   0.1421587   0.0000000   0.0000000
                 21       0.814332   0.3427047   0.0000000   0.0000000
                 22       0.288875   0.0000000   0.4644582   0.0000000
                 23       0.100568   0.0000000   0.0000000   0.2495579

 C #1  1    Z   
+                24      34.697232   0.0053334   0.0000000   0.0000000
                 25       7.958262   0.0358641   0.0000000   0.0000000
                 26       2.378083   0.1421587   0.0000000   0.0000000
                 27       0.814332   0.3427047   0.0000000   0.0000000
                 28       0.288875   0.0000000   0.4644582   0.0000000
                 29       0.100568   0.0000000   0.0000000   0.2495579

 C #1  1    XX  
+                30       1.097000   1.0000000   0.0000000
                 31       0.318000   0.0000000   1.0000000

 C #1  1    XY  
+                32       1.097000   1.0000000   0.0000000
                 33       0.318000   0.0000000   1.0000000

 C #1  1    XZ  
+                34       1.097000   1.0000000   0.0000000
                 35       0.318000   0.0000000   1.0000000

 C #1  1    YY  
+                36       1.097000   1.0000000   0.0000000
                 37       0.318000   0.0000000   1.0000000

 C #1  1    YZ  
+                38       1.097000   1.0000000   0.0000000
                 39       0.318000   0.0000000   1.0000000

 C #1  1    ZZ  
+                40       1.097000   1.0000000   0.0000000
                 41       0.318000   0.0000000   1.0000000

 C #1  1    F300
+                42       0.761000   1.0000000

 C #1  1    F210
+                43       0.761000   1.0000000

 C #1  1    F201
+                44       0.761000   1.0000000

 C #1  1    F120
+                45       0.761000   1.0000000

 C #1  1    F111
+                46       0.761000   1.0000000

 C #1  1    F102
+                47       0.761000   1.0000000

 C #1  1    F030
+                48       0.761000   1.0000000

 C #1  1    F021
+                49       0.761000   1.0000000

 C #1  1    F012
+                50       0.761000   1.0000000

 C #1  1    F003
+                51       0.761000   1.0000000

 CL#2  1    S   
+                52   69507.990945   0.0005431   0.0000000   0.0000000   0.0000000   0.0000000
                 53   10426.156880   0.0041990   0.0000000   0.0000000   0.0000000   0.0000000
                 54    2373.233406   0.0215921   0.0000000   0.0000000   0.0000000   0.0000000
                 55     671.564201   0.0845989   0.0000000   0.0000000   0.0000000   0.0000000
                 56     218.419998   0.2475725   0.0000000   0.0000000   0.0000000   0.0000000
                 57      77.572250   0.4701693   0.0000000   0.0000000   0.0000000   0.0000000
                 58      28.888815   0.3743637   0.0000000   0.0000000   0.0000000   0.0000000
                 59     127.105272   0.0000000   0.0251822   0.0000000   0.0000000   0.0000000
                 60      39.339583   0.0000000   0.1078611   0.0000000   0.0000000   0.0000000
                 61       7.674068   0.0000000  -0.2740882   0.0000000   0.0000000   0.0000000
                 62       3.874563   0.0000000   0.0000000   1.3213875   0.0000000   0.0000000
                 63       1.838583   0.0000000   0.0000000   0.6863696   0.0000000   0.0000000
                 64       0.502291   0.0000000   0.0000000   0.0000000   1.0000000   0.0000000
                 65       0.179627   0.0000000   0.0000000   0.0000000   0.0000000   1.0000000

 CL#2  1    X   
+                66     666.504233   0.0023633   0.0000000   0.0000000   0.0000000   0.0000000
                 67     157.642417   0.0188793   0.0000000   0.0000000   0.0000000   0.0000000
                 68      50.262521   0.0872063   0.0000000   0.0000000   0.0000000   0.0000000
                 69      18.536078   0.2528561   0.0000000   0.0000000   0.0000000   0.0000000
                 70       7.294053   0.4350715   0.0000000   0.0000000   0.0000000   0.0000000
                 71       2.943325   0.0000000   0.3502651   0.0000000   0.0000000   0.0000000
                 72       1.040497   0.0000000   0.0000000   1.0000000   0.0000000   0.0000000
                 73       0.384564   0.0000000   0.0000000   0.0000000   1.0000000   0.0000000
                 74       0.130696   0.0000000   0.0000000   0.0000000   0.0000000   1.0000000

 CL#2  1    Y   
+                75     666.504233   0.0023633   0.0000000   0.0000000   0.0000000   0.0000000
                 76     157.642417   0.0188793   0.0000000   0.0000000   0.0000000   0.0000000
                 77      50.262521   0.0872063   0.0000000   0.0000000   0.0000000   0.0000000
                 78      18.536078   0.2528561   0.0000000   0.0000000   0.0000000   0.0000000
                 79       7.294053   0.4350715   0.0000000   0.0000000   0.0000000   0.0000000
                 80       2.943325   0.0000000   0.3502651   0.0000000   0.0000000   0.0000000
                 81       1.040497   0.0000000   0.0000000   1.0000000   0.0000000   0.0000000
                 82       0.384564   0.0000000   0.0000000   0.0000000   1.0000000   0.0000000
                 83       0.130696   0.0000000   0.0000000   0.0000000   0.0000000   1.0000000

 CL#2  1    Z   
+                84     666.504233   0.0023633   0.0000000   0.0000000   0.0000000   0.0000000
                 85     157.642417   0.0188793   0.0000000   0.0000000   0.0000000   0.0000000
                 86      50.262521   0.0872063   0.0000000   0.0000000   0.0000000   0.0000000
                 87      18.536078   0.2528561   0.0000000   0.0000000   0.0000000   0.0000000
                 88       7.294053   0.4350715   0.0000000   0.0000000   0.0000000   0.0000000
                 89       2.943325   0.0000000   0.3502651   0.0000000   0.0000000   0.0000000
                 90       1.040497   0.0000000   0.0000000   1.0000000   0.0000000   0.0000000
                 91       0.384564   0.0000000   0.0000000   0.0000000   1.0000000   0.0000000
                 92       0.130696   0.0000000   0.0000000   0.0000000   0.0000000   1.0000000

 CL#2  1    XX  
+                93       0.339000   1.0000000   0.0000000   0.0000000
                 94       4.610000   0.0000000   1.0000000   0.0000000
                 95       1.011000   0.0000000   0.0000000   1.0000000

 CL#2  1    XY  
+                96       0.339000   1.0000000   0.0000000   0.0000000
                 97       4.610000   0.0000000   1.0000000   0.0000000
                 98       1.011000   0.0000000   0.0000000   1.0000000

 CL#2  1    XZ  
+                99       0.339000   1.0000000   0.0000000   0.0000000
                100       4.610000   0.0000000   1.0000000   0.0000000
                101       1.011000   0.0000000   0.0000000   1.0000000

 CL#2  1    YY  
+               102       0.339000   1.0000000   0.0000000   0.0000000
                103       4.610000   0.0000000   1.0000000   0.0000000
                104       1.011000   0.0000000   0.0000000   1.0000000

 CL#2  1    YZ  
+               105       0.339000   1.0000000   0.0000000   0.0000000
                106       4.610000   0.0000000   1.0000000   0.0000000
                107       1.011000   0.0000000   0.0000000   1.0000000

 CL#2  1    ZZ  
+               108       0.339000   1.0000000   0.0000000   0.0000000
                109       4.610000   0.0000000   1.0000000   0.0000000
                110       1.011000   0.0000000   0.0000000   1.0000000

 CL#2  1    F300
+               111       0.706000   1.0000000

 CL#2  1    F210
+               112       0.706000   1.0000000

 CL#2  1    F201
+               113       0.706000   1.0000000

 CL#2  1    F120
+               114       0.706000   1.0000000

 CL#2  1    F111
+               115       0.706000   1.0000000

 CL#2  1    F102
+               116       0.706000   1.0000000

 CL#2  1    F030
+               117       0.706000   1.0000000

 CL#2  1    F021
+               118       0.706000   1.0000000

 CL#2  1    F012
+               119       0.706000   1.0000000

 CL#2  1    F003
+               120       0.706000   1.0000000

 CL#3  1    S   
+               121   69507.990945   0.0005431   0.0000000   0.0000000   0.0000000   0.0000000
                122   10426.156880   0.0041990   0.0000000   0.0000000   0.0000000   0.0000000
                123    2373.233406   0.0215921   0.0000000   0.0000000   0.0000000   0.0000000
                124     671.564201   0.0845989   0.0000000   0.0000000   0.0000000   0.0000000
                125     218.419998   0.2475725   0.0000000   0.0000000   0.0000000   0.0000000
                126      77.572250   0.4701693   0.0000000   0.0000000   0.0000000   0.0000000
                127      28.888815   0.3743637   0.0000000   0.0000000   0.0000000   0.0000000
                128     127.105272   0.0000000   0.0251822   0.0000000   0.0000000   0.0000000
                129      39.339583   0.0000000   0.1078611   0.0000000   0.0000000   0.0000000
                130       7.674068   0.0000000  -0.2740882   0.0000000   0.0000000   0.0000000
                131       3.874563   0.0000000   0.0000000   1.3213875   0.0000000   0.0000000
                132       1.838583   0.0000000   0.0000000   0.6863696   0.0000000   0.0000000
                133       0.502291   0.0000000   0.0000000   0.0000000   1.0000000   0.0000000
                134       0.179627   0.0000000   0.0000000   0.0000000   0.0000000   1.0000000

 CL#3  2    S   
+               135   69507.990945   0.0005431   0.0000000   0.0000000   0.0000000   0.0000000
                136   10426.156880   0.0041990   0.0000000   0.0000000   0.0000000   0.0000000
                137    2373.233406   0.0215921   0.0000000   0.0000000   0.0000000   0.0000000
                138     671.564201   0.0845989   0.0000000   0.0000000   0.0000000   0.0000000
                139     218.419998   0.2475725   0.0000000   0.0000000   0.0000000   0.0000000
                140      77.572250   0.4701693   0.0000000   0.0000000   0.0000000   0.0000000
                141      28.888815   0.3743637   0.0000000   0.0000000   0.0000000   0.0000000
                142     127.105272   0.0000000   0.0251822   0.0000000   0.0000000   0.0000000
                143      39.339583   0.0000000   0.1078611   0.0000000   0.0000000   0.0000000
                144       7.674068   0.0000000  -0.2740882   0.0000000   0.0000000   0.0000000
                145       3.874563   0.0000000   0.0000000   1.3213875   0.0000000   0.0000000
                146       1.838583   0.0000000   0.0000000   0.6863696   0.0000000   0.0000000
                147       0.502291   0.0000000   0.0000000   0.0000000   1.0000000   0.0000000
                148       0.179627   0.0000000   0.0000000   0.0000000   0.0000000   1.0000000

 CL#3  1    X   
+               149     666.504233   0.0023633   0.0000000   0.0000000   0.0000000   0.0000000
                150     157.642417   0.0188793   0.0000000   0.0000000   0.0000000   0.0000000
                151      50.262521   0.0872063   0.0000000   0.0000000   0.0000000   0.0000000
                152      18.536078   0.2528561   0.0000000   0.0000000   0.0000000   0.0000000
                153       7.294053   0.4350715   0.0000000   0.0000000   0.0000000   0.0000000
                154       2.943325   0.0000000   0.3502651   0.0000000   0.0000000   0.0000000
                155       1.040497   0.0000000   0.0000000   1.0000000   0.0000000   0.0000000
                156       0.384564   0.0000000   0.0000000   0.0000000   1.0000000   0.0000000
                157       0.130696   0.0000000   0.0000000   0.0000000   0.0000000   1.0000000

 CL#3  2    X   
+               158     666.504233   0.0023633   0.0000000   0.0000000   0.0000000   0.0000000
                159     157.642417   0.0188793   0.0000000   0.0000000   0.0000000   0.0000000
                160      50.262521   0.0872063   0.0000000   0.0000000   0.0000000   0.0000000
                161      18.536078   0.2528561   0.0000000   0.0000000   0.0000000   0.0000000
                162       7.294053   0.4350715   0.0000000   0.0000000   0.0000000   0.0000000
                163       2.943325   0.0000000   0.3502651   0.0000000   0.0000000   0.0000000
                164       1.040497   0.0000000   0.0000000   1.0000000   0.0000000   0.0000000
                165       0.384564   0.0000000   0.0000000   0.0000000   1.0000000   0.0000000
                166       0.130696   0.0000000   0.0000000   0.0000000   0.0000000   1.0000000

 CL#3  1    Y   
+               167     666.504233   0.0023633   0.0000000   0.0000000   0.0000000   0.0000000
                168     157.642417   0.0188793   0.0000000   0.0000000   0.0000000   0.0000000
                169      50.262521   0.0872063   0.0000000   0.0000000   0.0000000   0.0000000
                170      18.536078   0.2528561   0.0000000   0.0000000   0.0000000   0.0000000
                171       7.294053   0.4350715   0.0000000   0.0000000   0.0000000   0.0000000
                172       2.943325   0.0000000   0.3502651   0.0000000   0.0000000   0.0000000
                173       1.040497   0.0000000   0.0000000   1.0000000   0.0000000   0.0000000
                174       0.384564   0.0000000   0.0000000   0.0000000   1.0000000   0.0000000
                175       0.130696   0.0000000   0.0000000   0.0000000   0.0000000   1.0000000

 CL#3  2    Y   
+               176     666.504233   0.0023633   0.0000000   0.0000000   0.0000000   0.0000000
                177     157.642417   0.0188793   0.0000000   0.0000000   0.0000000   0.0000000
                178      50.262521   0.0872063   0.0000000   0.0000000   0.0000000   0.0000000
                179      18.536078   0.2528561   0.0000000   0.0000000   0.0000000   0.0000000
                180       7.294053   0.4350715   0.0000000   0.0000000   0.0000000   0.0000000
                181       2.943325   0.0000000   0.3502651   0.0000000   0.0000000   0.0000000
                182       1.040497   0.0000000   0.0000000   1.0000000   0.0000000   0.0000000
                183       0.384564   0.0000000   0.0000000   0.0000000   1.0000000   0.0000000
                184       0.130696   0.0000000   0.0000000   0.0000000   0.0000000   1.0000000

 CL#3  1    Z   
+               185     666.504233   0.0023633   0.0000000   0.0000000   0.0000000   0.0000000
                186     157.642417   0.0188793   0.0000000   0.0000000   0.0000000   0.0000000
                187      50.262521   0.0872063   0.0000000   0.0000000   0.0000000   0.0000000
                188      18.536078   0.2528561   0.0000000   0.0000000   0.0000000   0.0000000
                189       7.294053   0.4350715   0.0000000   0.0000000   0.0000000   0.0000000
                190       2.943325   0.0000000   0.3502651   0.0000000   0.0000000   0.0000000
                191       1.040497   0.0000000   0.0000000   1.0000000   0.0000000   0.0000000
                192       0.384564   0.0000000   0.0000000   0.0000000   1.0000000   0.0000000
                193       0.130696   0.0000000   0.0000000   0.0000000   0.0000000   1.0000000

 CL#3  2    Z   
+               194     666.504233   0.0023633   0.0000000   0.0000000   0.0000000   0.0000000
                195     157.642417   0.0188793   0.0000000   0.0000000   0.0000000   0.0000000
                196      50.262521   0.0872063   0.0000000   0.0000000   0.0000000   0.0000000
                197      18.536078   0.2528561   0.0000000   0.0000000   0.0000000   0.0000000
                198       7.294053   0.4350715   0.0000000   0.0000000   0.0000000   0.0000000
                199       2.943325   0.0000000   0.3502651   0.0000000   0.0000000   0.0000000
                200       1.040497   0.0000000   0.0000000   1.0000000   0.0000000   0.0000000
                201       0.384564   0.0000000   0.0000000   0.0000000   1.0000000   0.0000000
                202       0.130696   0.0000000   0.0000000   0.0000000   0.0000000   1.0000000

 CL#3  1    XX  
+               203       0.339000   1.0000000   0.0000000   0.0000000
                204       4.610000   0.0000000   1.0000000   0.0000000
                205       1.011000   0.0000000   0.0000000   1.0000000

 CL#3  2    XX  
+               206       0.339000   1.0000000   0.0000000   0.0000000
                207       4.610000   0.0000000   1.0000000   0.0000000
                208       1.011000   0.0000000   0.0000000   1.0000000

 CL#3  1    XY  
+               209       0.339000   1.0000000   0.0000000   0.0000000
                210       4.610000   0.0000000   1.0000000   0.0000000
                211       1.011000   0.0000000   0.0000000   1.0000000

 CL#3  2    XY  
+               212       0.339000   1.0000000   0.0000000   0.0000000
                213       4.610000   0.0000000   1.0000000   0.0000000
                214       1.011000   0.0000000   0.0000000   1.0000000

 CL#3  1    XZ  
+               215       0.339000   1.0000000   0.0000000   0.0000000
                216       4.610000   0.0000000   1.0000000   0.0000000
                217       1.011000   0.0000000   0.0000000   1.0000000

 CL#3  2    XZ  
+               218       0.339000   1.0000000   0.0000000   0.0000000
                219       4.610000   0.0000000   1.0000000   0.0000000
                220       1.011000   0.0000000   0.0000000   1.0000000

 CL#3  1    YY  
+               221       0.339000   1.0000000   0.0000000   0.0000000
                222       4.610000   0.0000000   1.0000000   0.0000000
                223       1.011000   0.0000000   0.0000000   1.0000000

 CL#3  2    YY  
+               224       0.339000   1.0000000   0.0000000   0.0000000
                225       4.610000   0.0000000   1.0000000   0.0000000
                226       1.011000   0.0000000   0.0000000   1.0000000

 CL#3  1    YZ  
+               227       0.339000   1.0000000   0.0000000   0.0000000
                228       4.610000   0.0000000   1.0000000   0.0000000
                229       1.011000   0.0000000   0.0000000   1.0000000

 CL#3  2    YZ  
+               230       0.339000   1.0000000   0.0000000   0.0000000
                231       4.610000   0.0000000   1.0000000   0.0000000
                232       1.011000   0.0000000   0.0000000   1.0000000

 CL#3  1    ZZ  
+               233       0.339000   1.0000000   0.0000000   0.0000000
                234       4.610000   0.0000000   1.0000000   0.0000000
                235       1.011000   0.0000000   0.0000000   1.0000000

 CL#3  2    ZZ  
+               236       0.339000   1.0000000   0.0000000   0.0000000
                237       4.610000   0.0000000   1.0000000   0.0000000
                238       1.011000   0.0000000   0.0000000   1.0000000

 CL#3  1    F300
+               239       0.706000   1.0000000

 CL#3  2    F300
+               240       0.706000   1.0000000

 CL#3  1    F210
+               241       0.706000   1.0000000

 CL#3  2    F210
+               242       0.706000   1.0000000

 CL#3  1    F201
+               243       0.706000   1.0000000

 CL#3  2    F201
+               244       0.706000   1.0000000

 CL#3  1    F120
+               245       0.706000   1.0000000

 CL#3  2    F120
+               246       0.706000   1.0000000

 CL#3  1    F111
+               247       0.706000   1.0000000

 CL#3  2    F111
+               248       0.706000   1.0000000

 CL#3  1    F102
+               249       0.706000   1.0000000

 CL#3  2    F102
+               250       0.706000   1.0000000

 CL#3  1    F030
+               251       0.706000   1.0000000

 CL#3  2    F030
+               252       0.706000   1.0000000

 CL#3  1    F021
+               253       0.706000   1.0000000

 CL#3  2    F021
+               254       0.706000   1.0000000

 CL#3  1    F012
+               255       0.706000   1.0000000

 CL#3  2    F012
+               256       0.706000   1.0000000

 CL#3  1    F003
+               257       0.706000   1.0000000

 CL#3  2    F003
+               258       0.706000   1.0000000

 CL#4  1    S   
+               259   69507.990945   0.0005431   0.0000000   0.0000000   0.0000000   0.0000000
                260   10426.156880   0.0041990   0.0000000   0.0000000   0.0000000   0.0000000
                261    2373.233406   0.0215921   0.0000000   0.0000000   0.0000000   0.0000000
                262     671.564201   0.0845989   0.0000000   0.0000000   0.0000000   0.0000000
                263     218.419998   0.2475725   0.0000000   0.0000000   0.0000000   0.0000000
                264      77.572250   0.4701693   0.0000000   0.0000000   0.0000000   0.0000000
                265      28.888815   0.3743637   0.0000000   0.0000000   0.0000000   0.0000000
                266     127.105272   0.0000000   0.0251822   0.0000000   0.0000000   0.0000000
                267      39.339583   0.0000000   0.1078611   0.0000000   0.0000000   0.0000000
                268       7.674068   0.0000000  -0.2740882   0.0000000   0.0000000   0.0000000
                269       3.874563   0.0000000   0.0000000   1.3213875   0.0000000   0.0000000
                270       1.838583   0.0000000   0.0000000   0.6863696   0.0000000   0.0000000
                271       0.502291   0.0000000   0.0000000   0.0000000   1.0000000   0.0000000
                272       0.179627   0.0000000   0.0000000   0.0000000   0.0000000   1.0000000

 CL#4  1    X   
+               273     666.504233   0.0023633   0.0000000   0.0000000   0.0000000   0.0000000
                274     157.642417   0.0188793   0.0000000   0.0000000   0.0000000   0.0000000
                275      50.262521   0.0872063   0.0000000   0.0000000   0.0000000   0.0000000
                276      18.536078   0.2528561   0.0000000   0.0000000   0.0000000   0.0000000
                277       7.294053   0.4350715   0.0000000   0.0000000   0.0000000   0.0000000
                278       2.943325   0.0000000   0.3502651   0.0000000   0.0000000   0.0000000
                279       1.040497   0.0000000   0.0000000   1.0000000   0.0000000   0.0000000
                280       0.384564   0.0000000   0.0000000   0.0000000   1.0000000   0.0000000
                281       0.130696   0.0000000   0.0000000   0.0000000   0.0000000   1.0000000

 CL#4  1    Y   
+               282     666.504233   0.0023633   0.0000000   0.0000000   0.0000000   0.0000000
                283     157.642417   0.0188793   0.0000000   0.0000000   0.0000000   0.0000000
                284      50.262521   0.0872063   0.0000000   0.0000000   0.0000000   0.0000000
                285      18.536078   0.2528561   0.0000000   0.0000000   0.0000000   0.0000000
                286       7.294053   0.4350715   0.0000000   0.0000000   0.0000000   0.0000000
                287       2.943325   0.0000000   0.3502651   0.0000000   0.0000000   0.0000000
                288       1.040497   0.0000000   0.0000000   1.0000000   0.0000000   0.0000000
                289       0.384564   0.0000000   0.0000000   0.0000000   1.0000000   0.0000000
                290       0.130696   0.0000000   0.0000000   0.0000000   0.0000000   1.0000000

 CL#4  1    Z   
+               291     666.504233   0.0023633   0.0000000   0.0000000   0.0000000   0.0000000
                292     157.642417   0.0188793   0.0000000   0.0000000   0.0000000   0.0000000
                293      50.262521   0.0872063   0.0000000   0.0000000   0.0000000   0.0000000
                294      18.536078   0.2528561   0.0000000   0.0000000   0.0000000   0.0000000
                295       7.294053   0.4350715   0.0000000   0.0000000   0.0000000   0.0000000
                296       2.943325   0.0000000   0.3502651   0.0000000   0.0000000   0.0000000
                297       1.040497   0.0000000   0.0000000   1.0000000   0.0000000   0.0000000
                298       0.384564   0.0000000   0.0000000   0.0000000   1.0000000   0.0000000
                299       0.130696   0.0000000   0.0000000   0.0000000   0.0000000   1.0000000

 CL#4  1    XX  
+               300       0.339000   1.0000000   0.0000000   0.0000000
                301       4.610000   0.0000000   1.0000000   0.0000000
                302       1.011000   0.0000000   0.0000000   1.0000000

 CL#4  1    XY  
+               303       0.339000   1.0000000   0.0000000   0.0000000
                304       4.610000   0.0000000   1.0000000   0.0000000
                305       1.011000   0.0000000   0.0000000   1.0000000

 CL#4  1    XZ  
[...]
   The AA contribution to the correlation energy is:   -0.1112232 a.u.
   The AB contribution to the correlation energy is:   -0.7585227 a.u.
   The total correlation energy is -0.980968972485 a.u.
   The total correlation energy is -0.980968972485 a.u.
  Current DIIS expansion coefficients : 
 [   1] 1.0439868542 [   2] 0.0030143579 [   3] 0.0047182206 [   4]-0.0855850764
 [   5] 0.0338656437
  Convergence information after    11 iterations: 
  Largest element of residual vector :  0.50674780E-06.
  Largest element of DIIS residual   :  0.38486430E-06.
  W(mnij) AB contribution =  0.1625413017 a.u.
  W(abef) AB contribution =  0.2172625299 a.u.
  W(mbej) AB contribution = -0.5308853433 a.u.
   After  12 iterations, amplitude changes are:
    -------------------------------------------------------------------
                 Spin      RMS          Max.      Max. change for
     Amplitude   Case     Change       Change       i    j    a    b
    -------------------------------------------------------------------
        T1        AA    0.0000000003 0.0000001975    8        19
        T2        AA    0.0000000000-0.0000000124   15    4  112   19
        T2        AB    0.0000000000-0.0000000390   12   14   17   17
    -------------------------------------------------------------------
   The AA contribution to the correlation energy is:   -0.1112231 a.u.
   The AB contribution to the correlation energy is:   -0.7585228 a.u.
   The total correlation energy is -0.980969044146 a.u.
   The total correlation energy is -0.980969044146 a.u.
  Current DIIS expansion coefficients : 
 [   1]-0.0627963417 [   2] 1.1267371515 [   3] 0.0055569647 [   4]-0.0062003039
 [   5]-0.0632974706
  Convergence information after    12 iterations: 
  Largest element of residual vector :  0.19753734E-06.
  Largest element of DIIS residual   :  0.17134081E-06.
  W(mnij) AB contribution =  0.1625413587 a.u.
  W(abef) AB contribution =  0.2172625880 a.u.
  W(mbej) AB contribution = -0.5308855517 a.u.
   After  13 iterations, amplitude changes are:
    -------------------------------------------------------------------
                 Spin      RMS          Max.      Max. change for
     Amplitude   Case     Change       Change       i    j    a    b
    -------------------------------------------------------------------
        T1        AA    0.0000000001 0.0000000890    8        19
        T2        AA    0.0000000000-0.0000000067   14    8  112   19
        T2        AB    0.0000000000-0.0000000161   14   14   17   17
    -------------------------------------------------------------------
   The AA contribution to the correlation energy is:   -0.1112231 a.u.
   The AB contribution to the correlation energy is:   -0.7585228 a.u.
   The total correlation energy is -0.980969070082 a.u.
   The total correlation energy is -0.980969070082 a.u.
  Current DIIS expansion coefficients : 
 [   1]-0.0666739297 [   2]-0.2994749061 [   3] 1.3382550212 [   4]-0.0017974657
 [   5] 0.0296912804
  Convergence information after    13 iterations: 
  Largest element of residual vector :  0.89027926E-07.
  Largest element of DIIS residual   :  0.50077805E-07.
  W(mnij) AB contribution =  0.1625413614 a.u.
  W(abef) AB contribution =  0.2172625929 a.u.
  W(mbej) AB contribution = -0.5308855610 a.u.
   After  14 iterations, amplitude changes are:
    -------------------------------------------------------------------
                 Spin      RMS          Max.      Max. change for
     Amplitude   Case     Change       Change       i    j    a    b
    -------------------------------------------------------------------
        T1        AA    0.0000000001 0.0000000532    8        19
        T2        AA    0.0000000000-0.0000000022   14    8  112   19
        T2        AB    0.0000000000 0.0000000063   13   13   17   17
    -------------------------------------------------------------------
   The AA contribution to the correlation energy is:   -0.1112231 a.u.
   The AB contribution to the correlation energy is:   -0.7585228 a.u.
   The total correlation energy is -0.980969070820 a.u.
   The total correlation energy is -0.980969070820 a.u.
  Current DIIS expansion coefficients : 
 [   1] 0.0199641841 [   2]-0.1542753727 [   3]-0.0510231399 [   4] 1.1806600177
 [   5] 0.0046743108
  Convergence information after    14 iterations: 
  Largest element of residual vector :  0.53197015E-07.
  Largest element of DIIS residual   :  0.38704794E-07.
  W(mnij) AB contribution =  0.1625413558 a.u.
  W(abef) AB contribution =  0.2172625872 a.u.
  W(mbej) AB contribution = -0.5308855429 a.u.
   After  15 iterations, amplitude changes are:
    -------------------------------------------------------------------
                 Spin      RMS          Max.      Max. change for
     Amplitude   Case     Change       Change       i    j    a    b
    -------------------------------------------------------------------
        T1        AA    0.0000000000 0.0000000168    8        19
        T2        AA    0.0000000000 0.0000000017   12    5  112   19
        T2        AB    0.0000000000 0.0000000020    6    9   18   18
    -------------------------------------------------------------------
   The AA contribution to the correlation energy is:   -0.1112231 a.u.
   The AB contribution to the correlation energy is:   -0.7585228 a.u.
   The total correlation energy is -0.980969073893 a.u.
   The total correlation energy is -0.980969073893 a.u.
  Current DIIS expansion coefficients : 
 [   1] 0.0073501293 [   2] 0.0214309297 [   3]-0.0926016408 [   4]-0.1814947799
 [   5] 1.2453153617
  Convergence information after    15 iterations: 
  Largest element of residual vector :  0.16823897E-07.
  Largest element of DIIS residual   :  0.99908034E-08.
   Largest T1 amplitudes for spin case AA:
   i       a                 i       a                 i       a    
-----------------------------------------------------------------------------
[ 14     112    ]-0.01714 [  9      18    ]-0.01714 [  8      19    ] 0.01714
[ 12     126    ] 0.01257 [  6      36    ] 0.01257 [  5      37    ]-0.01257
[ 12     112    ] 0.01185 [  6      18    ] 0.01185 [  5      19    ]-0.01185
[  4      40    ] 0.01120 [  7      25    ] 0.00860 [ 13     115    ] 0.00860
[ 12     114    ]-0.00846 [  5      24    ]-0.00846 [  6      23    ]-0.00846
-----------------------------------------------------------------------------
   Norm of T1AA vector (     1352 symmetry allowed elements):  0.0561589422.
-----------------------------------------------------------------------------
   Largest T2 amplitudes for spin case AB:
       _       _                 _       _                 _       _
   i   j   a   b             i   j   a   b             i   j   a   b
-----------------------------------------------------------------------------
[  6   6  18  18]-0.03661 [  5   5  19  19]-0.03491 [ 12  12 112 112]-0.03491
[  4   4  17  17]-0.02400 [ 12   4 112  17]-0.02304 [  4  12  17 112]-0.02304
[  6   4  18  17]-0.02304 [  4   6  17  18]-0.02304 [  5   4  19  17] 0.02304
[  4   5  17  19] 0.02304 [ 12   5 112  19] 0.01986 [  5  12  19 112] 0.01986
[ 12   6 112  18]-0.01816 [  6  12  18 112]-0.01816 [  6   5  18  19] 0.01815
-----------------------------------------------------------------------------
   Norm of T2AB vector (  3365504 symmetry allowed elements):  0.5516265988.
-----------------------------------------------------------------------------
  W(mnij) AB contribution =  0.1625413527 a.u.
  W(abef) AB contribution =  0.2172625840 a.u.
  W(mbej) AB contribution = -0.5308855296 a.u.
   After  16 iterations, amplitude changes are:
    -------------------------------------------------------------------
                 Spin      RMS          Max.      Max. change for
     Amplitude   Case     Change       Change       i    j    a    b
    -------------------------------------------------------------------
        T1        AA    0.0000000000 0.0000000100    8        19
        T2        AA    0.0000000000 0.0000000005   12    5  112   19
        T2        AB    0.0000000000 0.0000000014    4    4   17   17
    -------------------------------------------------------------------
   The AA contribution to the correlation energy is:   -0.1112231 a.u.
   The AB contribution to the correlation energy is:   -0.7585228 a.u.
   The total correlation energy is -0.980969073081 a.u.
   The total correlation energy is -0.980969073081 a.u.
  Current DIIS expansion coefficients : 
 [   1] 1.2391057325 [   2]-0.0020880054 [   3] 0.0428720256 [   4]-0.2047718474
 [   5]-0.0751179052
  Convergence information after    16 iterations: 
  Largest element of residual vector :  0.10002247E-07.
  Largest element of DIIS residual   :  0.41855538E-08.
  W(mnij) AB contribution =  0.1625413516 a.u.
  W(abef) AB contribution =  0.2172625828 a.u.
  W(mbej) AB contribution = -0.5308855251 a.u.
   After  17 iterations, amplitude changes are:
    -------------------------------------------------------------------
                 Spin      RMS          Max.      Max. change for
     Amplitude   Case     Change       Change       i    j    a    b
    -------------------------------------------------------------------
        T1        AA    0.0000000000 0.0000000023    8        19
        T2        AA    0.0000000000 0.0000000003    5    4   19   17
        T2        AB    0.0000000000 0.0000000005    8    5   19   19
    -------------------------------------------------------------------
   The AA contribution to the correlation energy is:   -0.1112231 a.u.
   The AB contribution to the correlation energy is:   -0.7585228 a.u.
   The total correlation energy is -0.980969073414 a.u.
   The total correlation energy is -0.980969073414 a.u.
  Current DIIS expansion coefficients : 
 [   1]-0.1879815042 [   2] 1.2509233980 [   3] 0.0104004343 [   4] 0.0055977827
 [   5]-0.0789401108
  Convergence information after    17 iterations: 
  Largest element of residual vector :  0.22881399E-08.
  Largest element of DIIS residual   :  0.93668994E-09.
  W(mnij) AB contribution =  0.1625413515 a.u.
  W(abef) AB contribution =  0.2172625824 a.u.
  W(mbej) AB contribution = -0.5308855241 a.u.
   After  18 iterations, amplitude changes are:
    -------------------------------------------------------------------
                 Spin      RMS          Max.      Max. change for
     Amplitude   Case     Change       Change       i    j    a    b
    -------------------------------------------------------------------
        T1        AA    0.0000000000 0.0000000011    4        17
        T2        AA    0.0000000000 0.0000000001   12    5  112   19
        T2        AB    0.0000000000 0.0000000004    4    4   17   17
    -------------------------------------------------------------------
   The AA contribution to the correlation energy is:   -0.1112231 a.u.
   The AB contribution to the correlation energy is:   -0.7585228 a.u.
   The total correlation energy is -0.980969073545 a.u.
   The total correlation energy is -0.980969073545 a.u.
  Current DIIS expansion coefficients : 
 [   1]-0.1553975603 [   2] 0.0887607010 [   3] 1.0281258937 [   4] 0.0115556235
 [   5] 0.0269553421
  Convergence information after    18 iterations: 
  Largest element of residual vector :  0.10881300E-08.
  Largest element of DIIS residual   :  0.68925842E-09.
  W(mnij) AB contribution =  0.1625413516 a.u.
  W(abef) AB contribution =  0.2172625826 a.u.
  W(mbej) AB contribution = -0.5308855245 a.u.
   After  19 iterations, amplitude changes are:
    -------------------------------------------------------------------
                 Spin      RMS          Max.      Max. change for
     Amplitude   Case     Change       Change       i    j    a    b
    -------------------------------------------------------------------
        T1        AA    0.0000000000 0.0000000004    8        19
        T2        AA    0.0000000000 0.0000000000    8    4   19   17
        T2        AB    0.0000000000 0.0000000001    4    4   17   17
    -------------------------------------------------------------------
   The AA contribution to the correlation energy is:   -0.1112231 a.u.
   The AB contribution to the correlation energy is:   -0.7585228 a.u.
   The total correlation energy is -0.980969073521 a.u.
   The total correlation energy is -0.980969073521 a.u.
  Current DIIS expansion coefficients : 
 [   1]-0.0224023311 [   2]-0.0512538607 [   3]-0.1004458851 [   4] 1.1647943877
 [   5] 0.0093076893
  Convergence information after    19 iterations: 
  Largest element of residual vector :  0.36620634E-09.
  Largest element of DIIS residual   :  0.19715662E-09.
  Amplitude equations converged in    19iterations.
   The AA contribution to the correlation energy is:   -0.1112231 a.u.
   The AB contribution to the correlation energy is:   -0.7585228 a.u.
   The total correlation energy is -0.980969073538 a.u.
   The total correlation energy is -0.980969073538 a.u.
   The CC iterations have converged.

   Largest T1 amplitudes for spin case AA:
   i       a                 i       a                 i       a    
-----------------------------------------------------------------------------
[ 14     112    ]-0.01714 [  9      18    ]-0.01714 [  8      19    ] 0.01714
[ 12     126    ] 0.01257 [  6      36    ] 0.01257 [  5      37    ]-0.01257
[ 12     112    ] 0.01185 [  6      18    ] 0.01185 [  5      19    ]-0.01185
[  4      40    ] 0.01120 [ 13     115    ] 0.00860 [  7      25    ] 0.00860
[ 12     114    ]-0.00846 [  5      24    ]-0.00846 [  6      23    ]-0.00846
-----------------------------------------------------------------------------
   Norm of T1AA vector (     1352 symmetry allowed elements):  0.0561589640.
-----------------------------------------------------------------------------
   Largest T2 amplitudes for spin case AB:
       _       _                 _       _                 _       _
   i   j   a   b             i   j   a   b             i   j   a   b
-----------------------------------------------------------------------------
[  6   6  18  18]-0.03661 [  5   5  19  19]-0.03491 [ 12  12 112 112]-0.03491
[  4   4  17  17]-0.02400 [ 12   4 112  17]-0.02304 [  4  12  17 112]-0.02304
[  6   4  18  17]-0.02304 [  4   6  17  18]-0.02304 [  5   4  19  17] 0.02304
[  4   5  17  19] 0.02304 [ 12   5 112  19] 0.01986 [  5  12  19 112] 0.01986
[ 12   6 112  18]-0.01816 [  6  12  18 112]-0.01816 [  6   5  18  19] 0.01815
-----------------------------------------------------------------------------
   Norm of T2AB vector (  3365504 symmetry allowed elements):  0.5516265970.
-----------------------------------------------------------------------------
       Summary of iterative solution of CC equations 
      -----------------------------------------------------------
                       Correlation           Total
       Iteration         Energy              Energy
      -----------------------------------------------------------
            0        -0.927439146301   -1876.812733771059  DIIS 
            1        -0.952423544704   -1876.837718169462  DIIS 
            2        -0.977742904338   -1876.863037529096  DIIS 
            3        -0.978266706702   -1876.863561331461  DIIS 
            4        -0.980745430431   -1876.866040055189  DIIS 
            5        -0.980950294289   -1876.866244919048  DIIS 
            6        -0.980967091511   -1876.866261716270  DIIS 
            7        -0.980968215499   -1876.866262840258  DIIS 
            8        -0.980967396611   -1876.866262021369  DIIS 
            9        -0.980968068405   -1876.866262693163  DIIS 
           10        -0.980968737808   -1876.866263362567  DIIS 
           11        -0.980968972485   -1876.866263597243  DIIS 
           12        -0.980969044146   -1876.866263668904  DIIS 
           13        -0.980969070082   -1876.866263694841  DIIS 
           14        -0.980969070820   -1876.866263695578  DIIS 
           15        -0.980969073893   -1876.866263698651  DIIS 
           16        -0.980969073081   -1876.866263697839  DIIS 
           17        -0.980969073414   -1876.866263698173  DIIS 
           18        -0.980969073545   -1876.866263698304  DIIS 
           19        -0.980969073538   -1876.866263698296  DIIS 
      -----------------------------------------------------------
      A miracle has come to pass. The CC iterations have converged.
 @DIMT3-I, Dimensions of T3 amplitudes : 
               # abc          # ijk       Symmetry    Spin 
                   348460            270     1          1
                   347060            290     2          1
                  1060675            960     1          2
                  1051967            960     2          2
                  1060675            960     1          3
                  1051967            960     2          3
                   348460            270     1          4
                   347060            290     2          4
 @DIMT3-I, Dimensions of T3 amplitudes : 
               # abc          # ijk       Symmetry    Spin 
                   348460            270     1          1
                   347060            290     2          1
                  1060675            960     1          2
                  1051967            960     2          2
                  1060675            960     1          3
                  1051967            960     2          3
                   348460            270     1          4
                   347060            290     2          4
 @TRPS-I, Welcome to TRPS. Watch your RUs ! 
 @TRPS-I, Method is CCSD(T) 
 @TRPS-I, Calculation type is energy 
 @TRPS-I, Reference function information : 
          Reference function is Hartree-Fock 
          Reference function is RHF Hartree-Fock 
 @TRPS-I, INT1 is true 
 @TRPS-I, INT2 is false 
 @TRPS-I, Lengths of ijka integrals. #1     155520
                                     #2     155520
                                     #3     332672
                                     #4     332672
                                    Max     332672
 @INITRP-I, Initializing W intermediate lists. 
 @SETOOOV-I, Some OOOV lists are being transposed. 
 @TRPS-I, Available memory in integer words   1499959040
          Number of pre-allocated words for TRPS2       914267
          Number of free words for TRPS2   1499044773
 @TRPS2-I, Spin case AAB 
 @TRPS2-I, Number of free integer words 1499044773
           Number of free double  words 1499044773
           Ratio                                 1
 @TRPS2-I, E4TBAA      -0.022817533509
  @TRPS2-I, E4TAAA  -1.502243518999489E-003
 @TRPS2-I, E5ST A    0.000292323424752
 @TRPS2-I, E5ST B    0.000186904602375
 @SETOOOV-I, Some OOOV lists are being transposed. 
 @CCENRG-I, CCSD/QCISD energy will now be evaluated. 
 @CCENRG-I, Correlation energies. ECCAA       -0.111223131679
                                  ECCBB        0.000000000000
                                  ECCAB       -0.758522810180
                                  Total       -0.980969073538
 @CCENRG-I, Reference   energy   -1875.885294624758
            CCSD/QCISD energy    -1876.866263698296
          E4T (T(CCSD)) = -0.048639554055
          E5ST          =  0.000958456054
          E4ST          =  0.000000000000
          In other words  
          <T3[2](Dagger) D3  T3[2]> = -0.048639554055
          <T1   (Dagger) Q1 WT3[2]> =  0.000958456054
          <T2   (Dagger) Q2 FT3[2]> =  0.000000000000
        E(CCSD)           =   -1876.866263698296
        E(CCSD + T(CCSD)) =   -1876.914903252351
        E(CCSD(T))        =   -1876.913944796297
  @CHECKOUT-I, Total execution time (CPU/WALL):      434.22/     438.50 seconds.
--executable xvcc finished with status     0 in      438.54 seconds (walltime).
  The final electronic energy is     -1876.913944796297301 a.u. 
  This computation required                          698.96 seconds (walltime).
