 --invoking executable--
/home/nike/cfour_v2.00beta/cfour_v2.00beta/bin/xjoda


   *************************************************************************
         <<<     CCCCCC     CCCCCC   |||     CCCCCC     CCCCCC   >>>
       <<<      CCC        CCC       |||    CCC        CCC         >>>
      <<<      CCC        CCC        |||   CCC        CCC            >>>
    <<<        CCC        CCC        |||   CCC        CCC              >>>
      <<<      CCC        CCC        |||   CCC        CCC            >>>
       <<<      CCC        CCC       |||    CCC        CCC         >>>
         <<<     CCCCCC     CCCCCC   |||     CCCCCC     CCCCCC   >>>
   *************************************************************************

     ****************************************************************
     * CFOUR Coupled-Cluster techniques for Computational Chemistry *
     ****************************************************************
 

   Department of Chemistry                Institut fuer Physikalische Chemie
   University of Texas at Austin          Universitaet Mainz
   Austin, TX  78712, USA                 D-55099 Mainz, Germany
 
                       Version 2.00beta
 
                     blg8530.int.ets1.calculquebec.ca                  
                     Mo 2. Mär 19:46:44 EST 2020                      
                     integer*8 version is running
 
********************************************************************************
*                          Input from ZMAT file                                *
********************************************************************************
TITLE                                                                           
X                                                                               
C 1 RCC                                                                         
C 1 RCC 2 A60                                                                   
C 1 RCC 3 A60 2 D180                                                            
C 1 RCC 4 A60 3 D180                                                            
C 1 RCC 5 A60 4 D180                                                            
C 1 RCC 6 A60 5 D180                                                            
H 1 RXH 2 A60 7 D180                                                            
H 1 RXH 3 A60 2 D180                                                            
H 1 RXH 4 A60 3 D180                                                            
H 1 RXH 5 A60 4 D180                                                            
H 1 RXH 6 A60 5 D180                                                            
H 1 RXH 7 A60 6 D180                                                            
                                                                                
RCC=2.63613014933	                                                              
RXH=4.68194765185                                                               
A60=60                                                                          
D180=180                                                                        
                                                                                
*ACES2(CALC=CCSD(T)                                                             
UNITS=BOHR                                                                      
#GEOM=1.39498*10/5.29177210903_1.08260*10/5.29177210903_CCSD(T)/cc-pVQZ_from2016
#COORD=CARTESIAN                                                                
COORD=INTERNAL                                                                  
PRINT=4                                                                         
JODA_PRINT=4                                                                    
INPUT_MRCC=OFF                                                                  
#CC_PROG=MRCC                                                                   
#FROZEN_CORE=ON                                                                 
DROPMO=1>6                                                                      
CONTRACTION=GENERAL                                                             
#CONTRACTION=SEGMENTED                                                          
RELATIVISTIC=OFF                                                                
#EXCITE=EOMEE                                                                   
#ESTATE_CONV=5                                                                  
#ESTATE_SYM=2/2/2/2/2/2/2/2                                                     
XFORM_TOL=18                                                                    
SAVE_INTS=ON                                                                    
SCF_EXPORDER=6                                                                  
SCF_EXPSTART=5                                                                  
#SCF_DAMPING=1000                                                               
SCF_EXTRAPOLATION=ON                                                            
SCF_CONV=11                                                                     
SCF_MAXCYC=99999                                                                
CC_CONV=9                                                                       
CC_MAXCYC=999                                                                   
T3_EXTRAPOL=ON                                                                  
REFERENCE=RHF                                                                   
#SYMMETRY=OFF                                                                   
#HFSTABILITY=FOLLOW                                                             
CHARGE=+0                                                                       
MULT=1                                                                          
ABCDTYPE=STANDARD                                                               
#OCCUPATION=3-2-2-0-1-0-0-0/3-1-1-0-1-0-0-0                                     
MEM=12                                                                          
MEM_UNIT=GB                                                                     
BASIS=SPECIAL)                                                                  
                                                                                
C:def2-TZVPP                                                                    
C:def2-TZVPP                                                                    
C:def2-TZVPP                                                                    
C:def2-TZVPP                                                                    
C:def2-TZVPP                                                                    
C:def2-TZVPP                                                                    
H:def2-TZVPP                                                                    
H:def2-TZVPP                                                                    
H:def2-TZVPP                                                                    
H:def2-TZVPP                                                                    
H:def2-TZVPP                                                                    
H:def2-TZVPP                                                                    
                                                                                
********************************************************************************
  @GTFLGS-W, Keyword #GEOM not known and is ignored.
  @GTFLGS-W, Keyword #COORD not known and is ignored.
  @GTFLGS-W, Keyword #CC_PROG not known and is ignored.
  @GTFLGS-W, Keyword #FROZEN_CORE not known and is ignored.
  @GTFLGS-W, Keyword #CONTRACTION not known and is ignored.
  @GTFLGS-W, Keyword #EXCITE not known and is ignored.
  @GTFLGS-W, Keyword #ESTATE_CONV not known and is ignored.
  @GTFLGS-W, Keyword #ESTATE_SYM not known and is ignored.
  @GTFLGS-W, Keyword #SCF_DAMPING not known and is ignored.
  @GTFLGS-W, Keyword #SYMMETRY not known and is ignored.
  @GTFLGS-W, Keyword #HFSTABILITY not known and is ignored.
  @GTFLGS-W, Keyword #OCCUPATION not known and is ignored.
    -------------------------------------------------------------------
                    CFOUR Control Parameters 
    -------------------------------------------------------------------
        External           Internal           Value            Units
          Name               Name
    -------------------------------------------------------------------
       ABCDTYPE             IABCDT         STANDARD     [  0]   ***   
       ANHARMONIC           IANHAR         OFF          [  0]   ***   
       ANH_ALGORIT          IANALG         STANDARD     [  0]   ***   
       ANH_DERIVAT          IANDER         SECOND       [  1]   ***   
       ANH_STEPSIZ          ICUBST             50000          x 10-6  
       ANH_SYMMETR          IANHSM         ABELIAN      [  0]   ***   
       AO_LADDERS           IAOLAD         SINGLEPASS   [  1]   ***   
       BASIS                IBASIS         SPECIAL      [  0]   ***   
       BREIT                IBREIT         OFF          [  0]   ***   
       BRUCK_CONV           IBRTOL          10D-  4             ***   
       BRUECKNER            IBRKNR             OFF      [  0]   ***   
       BUFFERSIZE           IBUFFS            600               ***   
       CACHE_RECS           ICHREC             10               ***   
       CALCLEVEL            ICLLVL           CCSD(T)    [ 22]   ***   
       CCORBOPT             ICCORB             OFF      [  0] x 0.01  
       CC_CONV              ICCCNV          10D-  9             ***   
       CC_EXPORDER          ICCEOR              5               ***   
       CC_EXTRAPOL          ICCEXT             DIIS     [  1]   ***   
       CC_MAXCYC            ICCCYC            999              cycles 
       CC_PROGRAM           ICCPRO         VCC          [  0]   ***   
       CHARGE               ICHRGE              0               ***   
       CHOLESKY             ICHOLE         OFF          [  0]   ***   
       CIS_CONV             ICISTL              5               ***   
       COMM_SIZE            IPSIZE            ***               ***   
       CONSTANT             ICONST         OLD          [  1]   ***   
       CONTINUUM            ICONTU         NONE         [  0]   ***   
       CONTRACTION          ICNTYP          GENERAL     [  1]   ***   
       COORDINATES          ICOORD         INTERNAL     [  0]   ***   
       CPHF_CONVER          ICPHFT          10D- 16             ***   
       CPHF_MAXCYC          ICPHFC             64              cycles 
       CUBIC                ICUBIC         OFF          [  0]   ***   
       CURVILINEAR          ICURVY            OFF       [  0]   ***   
       DBOC                 IDBOC          OFF          [  0]   ***   
       DCT                  IDCT           OFF          [  0]   ***   
       DERIV_LEV            IDRLVL            ZERO      [  0]   ***   
       DIAG_MRCC            IEOMST          10D-  0             ***   
       DIFF_TYPE            IDIFTY         RELAXED      [  0]   ***   
       DIRECT               IDIRCT         OFF          [  0]   ***   
       DROPMO               IDRPMO   1,  2,  3,  4,  5,  6,
       ECP                  IECP           OFF          [  0]   ***   
       EIGENVECTOR          IVEC                1               ***   
       EL_ANHARM            IELANH         OFF          [  0]   ***   
       EOMFOLLOW            IEOMSR         ENERGY       [  0]   ***   
       EOM_MRCC             IMRCCE         NEW          [  1]   ***   
       EOM_NONIT            EOMNON         OFF          [  0]   ***   
       EOM_NSING            IEOMSI          10D-  0             ***   
       EOM_NSTATES          IMRCCD         DAVIDSON     [  0]   ***   
       EOM_NTRIP            IEOMTR          10D-  0             ***   
       EOM_ORDER            IEXORD         ENERGY       [  0]   ***   
       ESTATE_CONV          IEXTOL          10D-  5             ***   
       ESTATE_DIAG          IEXDIG         ITERATIVE    [  0]   ***   
       ESTATE_LOCK          IESLOC         ON           [  1]   ***   
       ESTATE_MAXC          IEXMXC             20               ***   
       ESTATE_PROP          IEXPRP         OFF          [  0]   ***   
       EVAL_HESS            IRECAL              0            # of cyc.
       EXCITATION           IEXCIT              0               ***   
       EXCITE               IEXCIT         NONE         [  0]   ***   
       FCGRADNEW            IFCGNW         OFF          [  0]   ***   
       FC_FIELD             IFINFC              0             x 10-6  
       FD_CALTYPE           IFDCAL         GRADONLY     [  0]   ***   
       FD_PROJECT           IFDPRJ         OFF          [  1]   ***   
       FD_STEPSIZE          IDISFD              0            10-4 bohr
       FD_USEGROUP          IFDGRP         FULL         [  0]   ***   
       FILE_RECSIZ          IFLREC              4096           words  
       FINITE_PERT          IFIPER              0             x 10-6  
       FIXGEOM              IFIXGM         OFF          [  0]   ***   
       FOCK                 IFOCK          AO           [  1]   ***   
       FREQ_ALGORI          IVIALG         STANDARD     [  0]   ***   
       FROZEN_CORE          IFROCO         OFF          [  0]   ***   
       FROZEN_VIRT          IFROVI         OFF          [  0]   ***   
       GAMMA_ABCD           IGABCD         STORE        [  0]   ***   
       GAMMA_ABCI           IGABCI         STORE        [  0]   ***   
       GENBAS_1             IGNBS1              0               ***   
       GENBAS_2             IGNBS2              0               ***   
       GENBAS_3             IGNBS3              0               ***   
       GENBAS_4             IGNBS4              0               ***   
       GEO_CONV             ICONTL              5              H/bohr 
       GEO_MAXCYC           IOPTCY             50               ***   
       GEO_MAXSTEP          IMXSTP            300            millibohr
       GEO_METHOD           INR            SINGLE_POINT [  5]   ***   
       GIAO                 IGIAO          OFF          [  1]   ***   
       GIMIC                IGIMIC         OFF          [  0]   ***   
       GRID                 IGRID          OFF          [  0]   ***   
       GRID_ALGO            IGALGO         SERIAL       [  0]   ***   
       GUESS                IGUESS            MOREAD    [  0]   ***   
       HBAR                 IHBAR              OFF      [  0]   ***   
       HESS_TYPE            IHESTP         SCF          [  0]   ***   
       HF2_FILE             IHF2Fl         USE          [  1]   ***   
       HFSTABILITY          ISTABL         OFF          [  0]   ***   
       INCORE               INCORE             OFF      [  0]   ***   
       INPUT_MRCC           IMRCC          OFF          [  0]   ***   
       INTEGRALS            INTTYP             VMOL     [  1]   ***   
       JODA_PRINT           IJPRNT              4               ***   
       LINDEP_TOL           ILINDP              8               ***   
       LINEQ_CONV           IZTACN          10D-  7           cycles  
       LINEQ_EXPOR          ILMAXD              5               ***   
       LINEQ_MAXCY          ILMAXC             50               ***   
       LINEQ_TYPE           ILTYPE         DIIS         [  1]   ***   
       LOCK_ORBOCC          ILOCOC             OFF      [  0]   ***   
       MEMORY_SIZE          IMEMSZ         *********           words  
       MEM_UNIT             IMEMU          GB           [  3]   ***   
       MRCC                 IMRCCC         OFF          [  0]   ***   
       MULTIPLICTY          IMULTP              1               ***   
       NEGEVAL              IDIE             ABORT      [  0]   ***   
       NEWNORM              INEWNO         OFF          [  0]   ***   
       NON-HF               INONHF             OFF      [  0]   ***   
       NTOP_TAMP            ITOPT2             15               ***   
       NUC_MODEL            INUCMO         POINT        [  0]   ***   
       OCCUPATION           IOCCU   ESTIMATED BY SCF 
       OPEN-SHELL           IOPEN          SPIN-ORBITAL [  0]   ***   
       ORBITALS             IORBTP           STANDARD   [  0]   ***   
       PARALLEL             IPARAL         ON           [  1]   ***   
       PARA_INT             IPINTS         ON           [  1]   ***   
       PARA_PRINT           IPPRIN              0               ***   
       PERT_ORB             IPTORB         STANDARD     [  0]   ***   
       POINTS               IGRDFD              0               ***   
       PRINT                IPRNT               4               ***   
       PROPS                IPROPS             OFF      [  0]   ***   
       PROP_INTEGR          IINTYP         INTERNAL     [  0]   ***   
       PSI                  IPSI           OFF          [  0]   ***   
       QUARTIC              IQUART         OFF          [  0]   ***   
       RAMAN_INT            IRAMIN         OFF          [  0]   ***   
       RAMAN_ORB            IRAMRE         UNRELAXED    [  0]   ***   
       RDO                  IRDOFM             OFF      [  0]   ***   
       REFERENCE            IREFNC             RHF      [  0]   ***   
       RELATIVIST           IRELAT         OFF          [  0]   ***   
       RELAX_DENS           IRDENS             OFF      [  0]   ***   
       RESET_FLAGS          IRESET             OFF      [  0]   ***   
       RESTART_CC           ICCRES         OFF          [  0]   ***   
       ROT_EVEC             ROTVEC              0               ***   
       SAVE_INTS            ISVINT              ON      [  1]   ***   
       SCALE_ON             ISTCRT              0               ***   
       SCF_CONV             ISCFCV          10D- 11             ***   
       SCF_DAMPING          IDAMP               0             x 10-3  
       SCF_EXPORDE          IRPPOR              6               ***   
       SCF_EXPSTAR          IRPPLS              5               ***   
       SCF_EXTRAPO          IRPP                ON      [  1]   ***   
       SCF_MAXCYC           ISCFCY            ***              cycles 
       SCF_NOSTOP           ISCFST         OFF          [  0]   ***   
       SCF_PRINT            ISCFPR              0               ***   
       SD_FIELD             IFINSD              0             x 10-6  
       SEQUENCE             ISEQUE         OFF          [  0]   ***   
       SOPERT               IPERSO         OFF          [  0]   ***   
       SPHERICAL            IDFGHI             ON       [  1]   ***   
       SPINORBIT            ISOCAL         OFF          [  0]   ***   
       SPINROTATIO          ISRCON         OFF          [  0]   ***   
       SPIN_FLIP            ISPFLP         OFF          [  0]   ***   
       SPIN_ORBIT           ISPORB         OFF          [  0]   ***   
       SPIN_SCAL            ISCSMP         OFF          [  0]   ***   
       SUBGROUP             ISUBGP         DEFAULT      [  0]   ***   
       SUBGRPAXIS           ISBXYZ         X            [  0]   ***   
       SYMMETRY             ISYM             ON         [  0]   ***   
       SYM_CHECK            ISYMCK         OVERRIDE     [  1]   ***   
       T3_EXTRAPOL          IT3EXT         ON           [  1]   ***   
       TAMP_SUM             IEVERY              5               ***   
       TESTSUITE            ITESTS         OFF          [  0]   ***   
       THERMOCH             ITHERM         OFF          [  0]   ***   
       TOL_CHOLESK          ITOLCH          10D-  4             ***   
       TRANGRAD             IRESRM         OFF          [  0]   ***   
       TRANS_INV            ITRAIN         USE          [  0]   ***   
       TREAT_PERT           ITREAT         SIMULTANEOUS [  0]   ***   
       UIJ_THRESHO          IUIJTH              1               ***   
       UNITS                IUNITS         BOHR         [  1]   ***   
       UNOS                 IUNOS          OFF          [  0]   ***   
       UPDATE_HESS          IHUPDT         ON           [  1]   ***   
       VIBPHASE             ISETPH         STANDARD     [  0]   ***   
       VIBRATION            IVIB              NO        [  0]   ***   
       VIB_ALGORIT          IGEALG         STANDARD     [  0]   ***   
       VNATORB              IVNORB         OFF          [  0]   ***   
       VTRAN                IVTRAN         FULL/PARTIAL [  0]   ***   
       XFIELD               IXEFLD              0             x 10-6  
       XFORM_TOL            IXFTOL          10D- 18             ***   
       YFIELD               IYEFLD              0             x 10-6  
       ZFIELD               IZEFLD              0             x 10-6  
    -------------------------------------------------------------------
  13 entries found in Z-matrix 
   Job Title : TITLE                                                                           
 Variable names read by FETCHZ
  1           
  2           
  3           
  4 RCC       
  5           
  6           
  7 RCC       
  8 A60       
  9           
 10 RCC       
 11 A60       
 12 D180      
 13 RCC       
 14 A60       
 15 D180      
 16 RCC       
 17 A60       
 18 D180      
 19 RCC       
 20 A60       
 21 D180      
 22 RXH       
 23 A60       
 24 D180      
 25 RXH       
 26 A60       
 27 D180      
 28 RXH       
 29 A60       
 30 D180      
 31 RXH       
 32 A60       
 33 D180      
 34 RXH       
 35 A60       
 36 D180      
 37 RXH       
 38 A60       
 39 D180      
 Atomic symbols read by FETCHZ
  1 X    
  2 C    
  3 C    
  4 C    
  5 C    
  6 C    
  7 C    
  8 H    
  9 H    
 10 H    
 11 H    
 12 H    
 13 H    
 Connectivity matrix read by FETCHZ
  1   0
  2   0
  3   0
  4   1
  5   0
  6   0
  7   1
  8   2
  9   0
 10   1
 11   3
 12   2
 13   1
 14   4
 15   3
 16   1
 17   5
 18   4
 19   1
 20   6
 21   5
 22   1
 23   2
 24   7
 25   1
 26   3
 27   2
 28   1
 29   4
 30   3
 31   1
 32   5
 33   4
 34   1
 35   6
 36   5
 37   1
 38   7
 39   6
   There are  4 unique internal coordinates.
   Of these,  0 will be optimized.
   User supplied Z-matrix: 
--------------------------------------------------------------------------------
       SYMBOL    BOND      LENGTH    ANGLE     ANGLE     DIHED     ANGLE
                  TO      (ANGST)    WRT      (DEG)      WRT      (DEG)
--------------------------------------------------------------------------------
        X    
        C          1         RCC  
        C          1         RCC        2        A60  
        C          1         RCC        3        A60        2        D180 
        C          1         RCC        4        A60        3        D180 
        C          1         RCC        5        A60        4        D180 
        C          1         RCC        6        A60        5        D180 
        H          1         RXH        2        A60        7        D180 
        H          1         RXH        3        A60        2        D180 
        H          1         RXH        4        A60        3        D180 
        H          1         RXH        5        A60        4        D180 
        H          1         RXH        6        A60        5        D180 
        H          1         RXH        7        A60        6        D180 
                  *Initial values for internal coordinates* 
                      Name             Value
                        RCC             2.6361301493
                        A60            60.0000000000
                        D180          180.0000000000
                        RXH             4.6819476518
--------------------------------------------------------------------------------
  1  X          0     0.00000
  2  C          6    12.00000
  3  C          6    12.00000
  4  C          6    12.00000
  5  C          6    12.00000
  6  C          6    12.00000
  7  C          6    12.00000
  8  H          1     1.00783
  9  H          1     1.00783
 10  H          1     1.00783
 11  H          1     1.00783
 12  H          1     1.00783
 13  H          1     1.00783
    0.0000000000
   12.0000000000
   12.0000000000
   12.0000000000
   12.0000000000
   12.0000000000
   12.0000000000
    1.0078250350
    1.0078250350
    1.0078250350
    1.0078250350
    1.0078250350
    1.0078250350
 After translation to center of mass coordinates 
       -0.000000000000   -0.000000000000    0.000000000000
       -0.000000000000   -0.000000000000    2.636130149330
        2.282955677002   -0.000000000000    1.318065074665
        2.282955677002   -0.000000000000   -1.318065074665
        0.000000000000    0.000000000000   -2.636130149330
       -2.282955677002    0.000000000000   -1.318065074665
       -2.282955677002   -0.000000000000    1.318065074665
        4.054685605691   -0.000000000000    2.340973825925
        4.054685605691    0.000000000000   -2.340973825925
        0.000000000000    0.000000000000   -4.681947651850
       -4.054685605691    0.000000000000   -2.340973825925
       -4.054685605691    0.000000000000    2.340973825925
       -0.000000000000   -0.000000000000    4.681947651850
  Inertia tensor (amu*bohr**2)
  316.44705    0.00000   -0.00000
    0.00000  632.89410    0.00000
   -0.00000    0.00000  316.44705
    Inertia tensor:
      316.447048535895    0.000000000000   -0.000000000000
        0.000000000000  632.894097071790    0.000000000000
       -0.000000000000    0.000000000000  316.447048535895
    Principal axis orientation for molecular system: 
       -0.000000000000    0.000000000000   -0.000000000000
       -0.000000000000    2.636130149330   -0.000000000000
        2.282955677002    1.318065074665    0.000000000000
        2.282955677002   -1.318065074665    0.000000000000
        0.000000000000   -2.636130149330    0.000000000000
       -2.282955677002   -1.318065074665   -0.000000000000
       -2.282955677002    1.318065074665   -0.000000000000
        4.054685605691    2.340973825925    0.000000000000
        4.054685605691   -2.340973825925    0.000000000000
        0.000000000000   -4.681947651850    0.000000000000
       -4.054685605691   -2.340973825925   -0.000000000000
       -4.054685605691    2.340973825925   -0.000000000000
       -0.000000000000    4.681947651850   -0.000000000000
    Diagonalized inertia tensor:
      316.447048535895    0.000000000000    0.000000000000
        0.000000000000  316.447048535895    0.000000000000
        0.000000000000    0.000000000000  632.894097071789
    Eigenvectors of inertia tensor: 
        1.000000000000    0.000000000000    0.000000000000
       -0.000000000000    0.000000000000    1.000000000000
        0.000000000000    1.000000000000    0.000000000000
 factor:   60.1997200000000     
   Rotational constants (in cm-1): 
          0.0951181569             0.1902363137             0.1902363137
   Rotational constants (in MHz): 
       2851.5710039958          5703.1420079915          5703.1420079915
  @SYMMETRY-I, Handedness of inertial frame:-1.00000
  @SYMMETRY-I, Sense of inertial frame y-axis will be changed.
  @SYMMETRY-I, The symmetry group is 2-fold degenerate.
  @SYMMETRY-I, The molecule belongs to a point group with doubly degenerate representations.
  @SYMMETRY-I, Z is a C[ 2] axis.
  @SYMMETRY-I, Z is a C[ 3] axis.
  @SYMMETRY-I, Z is a C[ 6] axis.
  @SYMMETRY-I, The highest order rotational axis is C[ 6] about Z.
   Principal axis orientation for molecule:
        0.000000000000    0.000000000000   -0.000000000000
       -0.000000000000    2.636130149330   -0.000000000000
       -2.282955677002    1.318065074665    0.000000000000
       -2.282955677002   -1.318065074665    0.000000000000
       -0.000000000000   -2.636130149330    0.000000000000
        2.282955677002   -1.318065074665   -0.000000000000
        2.282955677002    1.318065074665   -0.000000000000
       -4.054685605691    2.340973825925    0.000000000000
       -4.054685605691   -2.340973825925    0.000000000000
        0.000000000000   -4.681947651850    0.000000000000
        4.054685605691   -2.340973825925   -0.000000000000
        4.054685605691    2.340973825925   -0.000000000000
        0.000000000000    4.681947651850   -0.000000000000
   Reflection in plane  3 is a valid symmetry operation.
   Rotation about  3 is a valid symmetry operation 
   Reflection in plane  2 is a valid symmetry operation.
   Rotation about  2 is a valid symmetry operation 
   Reflection in plane  1 is a valid symmetry operation.
   Rotation about  1 is a valid symmetry operation 
   The molecule possesses an inversion center. 
  Symmetry bits:    7   7   1
********************************************************************************
   The full molecular point group is D6h .
   The largest Abelian subgroup of the full molecular point group is D2h .
   The computational point group is D2h .
********************************************************************************
--------------------------------------------------------------------------------
   Analysis of internal coordinates specified by Z-matrix 
--------------------------------------------------------------------------------
   *The nuclear repulsion energy is  203.513862007386109 a.u.
   *There are   2 degrees of freedom within the tot. symm. molecular subspace.
   *Z-matrix requests optimization of   0 coordinates.
   *The optimization is constrained.
   *The following   2 parameters can have non-zero 
    derivatives within the totally symmetric subspace:
             RXH  [25]  RCC  [ 7]
   *The following   0 parameters are to be optimized:

   *The following coordinates must be varied in an  unconstrained optimization.
             RXH  [25]  RCC  [ 7]
--------------------------------------------------------------------------------
 ----------------------------------------------------------------
 Z-matrix   Atomic            Coordinates (in bohr)
  Symbol    Number           X              Y              Z
 ----------------------------------------------------------------
     X         0         0.00000000     0.00000000    -0.00000000
     C         6        -0.00000000     2.63613015    -0.00000000
     C         6        -2.28295568     1.31806507     0.00000000
     C         6        -2.28295568    -1.31806507     0.00000000
     C         6        -0.00000000    -2.63613015     0.00000000
     C         6         2.28295568    -1.31806507    -0.00000000
     C         6         2.28295568     1.31806507    -0.00000000
     H         1        -4.05468561     2.34097383     0.00000000
     H         1        -4.05468561    -2.34097383     0.00000000
     H         1         0.00000000    -4.68194765     0.00000000
     H         1         4.05468561    -2.34097383    -0.00000000
     H         1         4.05468561     2.34097383    -0.00000000
     H         1         0.00000000     4.68194765    -0.00000000
 ----------------------------------------------------------------
   Interatomic distance matrix (Angstroms) 
 
                 X             C             C             C             C    
                [ 1]        [ 2]        [ 3]        [ 4]        [ 5]
  X    [ 1]     0.00000
  C    [ 2]     1.39498     0.00000
  C    [ 3]     1.39498     1.39498     0.00000
  C    [ 4]     1.39498     2.41618     1.39498     0.00000
  C    [ 5]     1.39498     2.78996     2.41618     1.39498     0.00000
  C    [ 6]     1.39498     2.41618     2.78996     2.41618     1.39498
  C    [ 7]     1.39498     1.39498     2.41618     2.78996     2.41618
  H    [ 8]     2.47758     2.15132     1.08260     2.15132     3.39714
  H    [ 9]     2.47758     3.39714     2.15132     1.08260     2.15132
  H    [10]     2.47758     3.87256     3.39714     2.15132     1.08260
  H    [11]     2.47758     3.39714     3.87256     3.39714     2.15132
  H    [12]     2.47758     2.15132     3.39714     3.87256     3.39714
  H    [13]     2.47758     1.08260     2.15132     3.39714     3.87256
 
                 C             C             H             H             H    
                [ 6]        [ 7]        [ 8]        [ 9]        [10]
  C    [ 6]     0.00000
  C    [ 7]     1.39498     0.00000
  H    [ 8]     3.87256     3.39714     0.00000
  H    [ 9]     3.39714     3.87256     2.47758     0.00000
  H    [10]     2.15132     3.39714     4.29129     2.47758     0.00000
  H    [11]     1.08260     2.15132     4.95516     4.29129     2.47758
  H    [12]     2.15132     1.08260     4.29129     4.95516     4.29129
  H    [13]     3.39714     2.15132     2.47758     4.29129     4.95516
 
                 H             H             H    
                [11]        [12]        [13]
  H    [11]     0.00000
  H    [12]     2.47758     0.00000
  H    [13]     4.29129     2.47758     0.00000
  Inertia tensor (amu*bohr**2)
  316.44705    0.00000    0.00000
    0.00000  316.44705    0.00000
    0.00000    0.00000  632.89410
   Rotational constants (in cm-1): 
          0.1902363137             0.1902363137             0.0951181569
   Rotational constants (in MHz): 
       5703.1420079915          5703.1420079915          2851.5710039958
  @GTFLGS-W, Keyword #GEOM not known and is ignored.
  @GTFLGS-W, Keyword #COORD not known and is ignored.
  @GTFLGS-W, Keyword #CC_PROG not known and is ignored.
  @GTFLGS-W, Keyword #FROZEN_CORE not known and is ignored.
  @GTFLGS-W, Keyword #CONTRACTION not known and is ignored.
  @GTFLGS-W, Keyword #EXCITE not known and is ignored.
  @GTFLGS-W, Keyword #ESTATE_CONV not known and is ignored.
  @GTFLGS-W, Keyword #ESTATE_SYM not known and is ignored.
  @GTFLGS-W, Keyword #SCF_DAMPING not known and is ignored.
  @GTFLGS-W, Keyword #SYMMETRY not known and is ignored.
  @GTFLGS-W, Keyword #HFSTABILITY not known and is ignored.
  @GTFLGS-W, Keyword #OCCUPATION not known and is ignored.
  There are  270 basis functions.
 @GEOPT-W, Archive file not created for single-point calculation.
  @CHECKOUT-I, Total execution time (CPU/WALL):        0.79/       2.14 seconds.
--executable xjoda finished with status     0 in        3.91 seconds (walltime).
 --invoking executable--
/home/nike/cfour_v2.00beta/cfour_v2.00beta/bin/xvmol
 Serial version of molecule started
********************************************************************************
                    Input from MOL file
********************************************************************************
INTGRL        1    0    1    0    0    0    0    0    0                         
         *** CFOUR Program System (Release V0.1) ***                            
TITLE                                                                           
    4    3 X  Y   Z   0.10E-08              0    0                              
   9999.00      3.00                                                            
          6.00000000    1    4    1    1    1    1                              
C #1  -0.000000000000000   2.636130149330000  -0.000000000000000                
   11    5                                                                      
   13575.3496820000       2.224581435200000E-004  0.000000000000000E+000        
  0.000000000000000E+000  0.000000000000000E+000  0.000000000000000E+000        
   2035.23336800000       1.723273825200000E-003  0.000000000000000E+000        
  0.000000000000000E+000  0.000000000000000E+000  0.000000000000000E+000        
   463.225623590000       8.925571531400001E-003  0.000000000000000E+000        
  0.000000000000000E+000  0.000000000000000E+000  0.000000000000000E+000        
   131.200195980000       3.572798450200000E-002  0.000000000000000E+000        
  0.000000000000000E+000  0.000000000000000E+000  0.000000000000000E+000        
   42.8530158910000       0.110762599310000       0.000000000000000E+000        
  0.000000000000000E+000  0.000000000000000E+000  0.000000000000000E+000        
   15.5841857660000       0.242956276260000       0.000000000000000E+000        
  0.000000000000000E+000  0.000000000000000E+000  0.000000000000000E+000        
   6.20671385080000       0.000000000000000E+000  0.414402634480000             
  0.000000000000000E+000  0.000000000000000E+000  0.000000000000000E+000        
   2.57648965270000       0.000000000000000E+000  0.237449686550000             
  0.000000000000000E+000  0.000000000000000E+000  0.000000000000000E+000        
  0.576963394190000       0.000000000000000E+000  0.000000000000000E+000        
   1.00000000000000       0.000000000000000E+000  0.000000000000000E+000        
  0.229728313580000       0.000000000000000E+000  0.000000000000000E+000        
  0.000000000000000E+000   1.00000000000000       0.000000000000000E+000        
  9.516444002799999E-002  0.000000000000000E+000  0.000000000000000E+000        
  0.000000000000000E+000  0.000000000000000E+000   1.00000000000000             
    6    3                                                                      
   34.6972322440000       5.333365780500000E-003  0.000000000000000E+000        
  0.000000000000000E+000                                                        
   7.95826228260000       3.586410909200000E-002  0.000000000000000E+000        
  0.000000000000000E+000                                                        
   2.37808268830000       0.142158733290000       0.000000000000000E+000        
  0.000000000000000E+000                                                        
  0.814332081830000       0.342704718450000       0.000000000000000E+000        
  0.000000000000000E+000                                                        
  0.288875472530000       0.000000000000000E+000  0.464458224330000             
  0.000000000000000E+000                                                        
  0.100568236710000       0.000000000000000E+000  0.000000000000000E+000        
  0.249557898740000                                                             
    2    2                                                                      
   1.09700000000000        1.00000000000000       0.000000000000000E+000        
  0.318000000000000       0.000000000000000E+000   1.00000000000000             
    1    1                                                                      
  0.761000000000000        1.00000000000000                                     
          6.00000000    1    4    1    1    1    1                              
C #2  -2.282955677001845   1.318065074665000   0.000000000000001                
   11    5                                                                      
   13575.3496820000       2.224581435200000E-004  0.000000000000000E+000        
  0.000000000000000E+000  0.000000000000000E+000  0.000000000000000E+000        
   2035.23336800000       1.723273825200000E-003  0.000000000000000E+000        
  0.000000000000000E+000  0.000000000000000E+000  0.000000000000000E+000        
   463.225623590000       8.925571531400001E-003  0.000000000000000E+000        
  0.000000000000000E+000  0.000000000000000E+000  0.000000000000000E+000        
   131.200195980000       3.572798450200000E-002  0.000000000000000E+000        
  0.000000000000000E+000  0.000000000000000E+000  0.000000000000000E+000        
   42.8530158910000       0.110762599310000       0.000000000000000E+000        
  0.000000000000000E+000  0.000000000000000E+000  0.000000000000000E+000        
   15.5841857660000       0.242956276260000       0.000000000000000E+000        
  0.000000000000000E+000  0.000000000000000E+000  0.000000000000000E+000        
   6.20671385080000       0.000000000000000E+000  0.414402634480000             
  0.000000000000000E+000  0.000000000000000E+000  0.000000000000000E+000        
   2.57648965270000       0.000000000000000E+000  0.237449686550000             
  0.000000000000000E+000  0.000000000000000E+000  0.000000000000000E+000        
  0.576963394190000       0.000000000000000E+000  0.000000000000000E+000        
   1.00000000000000       0.000000000000000E+000  0.000000000000000E+000        
  0.229728313580000       0.000000000000000E+000  0.000000000000000E+000        
  0.000000000000000E+000   1.00000000000000       0.000000000000000E+000        
  9.516444002799999E-002  0.000000000000000E+000  0.000000000000000E+000        
  0.000000000000000E+000  0.000000000000000E+000   1.00000000000000             
    6    3                                                                      
   34.6972322440000       5.333365780500000E-003  0.000000000000000E+000        
  0.000000000000000E+000                                                        
   7.95826228260000       3.586410909200000E-002  0.000000000000000E+000        
  0.000000000000000E+000                                                        
   2.37808268830000       0.142158733290000       0.000000000000000E+000        
  0.000000000000000E+000                                                        
  0.814332081830000       0.342704718450000       0.000000000000000E+000        
  0.000000000000000E+000                                                        
  0.288875472530000       0.000000000000000E+000  0.464458224330000             
  0.000000000000000E+000                                                        
  0.100568236710000       0.000000000000000E+000  0.000000000000000E+000        
  0.249557898740000                                                             
    2    2                                                                      
   1.09700000000000        1.00000000000000       0.000000000000000E+000        
  0.318000000000000       0.000000000000000E+000   1.00000000000000             
    1    1                                                                      
  0.761000000000000        1.00000000000000                                     
          1.00000000    1    3    1    1    1                                   
H #3  -4.054685605690999   2.340973825924999   0.000000000000002                
    5    3                                                                      
   34.0613410000000       6.025197800000000E-003  0.000000000000000E+000        
  0.000000000000000E+000                                                        
   5.12357460000000       4.502109400000000E-002  0.000000000000000E+000        
  0.000000000000000E+000                                                        
   1.16466260000000       0.201897260000000       0.000000000000000E+000        
  0.000000000000000E+000                                                        
  0.327230410000000       0.000000000000000E+000   1.00000000000000             
  0.000000000000000E+000                                                        
  0.103072410000000       0.000000000000000E+000  0.000000000000000E+000        
   1.00000000000000                                                             
    2    2                                                                      
   1.40700000000000        1.00000000000000       0.000000000000000E+000        
  0.388000000000000       0.000000000000000E+000   1.00000000000000             
    1    1                                                                      
   1.05700000000000        1.00000000000000                                     
          1.00000000    1    3    1    1    1                                   
H #4   0.000000000000000  -4.681947651850000   0.000000000000001                
    5    3                                                                      
   34.0613410000000       6.025197800000000E-003  0.000000000000000E+000        
  0.000000000000000E+000                                                        
   5.12357460000000       4.502109400000000E-002  0.000000000000000E+000        
  0.000000000000000E+000                                                        
   1.16466260000000       0.201897260000000       0.000000000000000E+000        
  0.000000000000000E+000                                                        
  0.327230410000000       0.000000000000000E+000   1.00000000000000             
  0.000000000000000E+000                                                        
  0.103072410000000       0.000000000000000E+000  0.000000000000000E+000        
   1.00000000000000                                                             
    2    2                                                                      
   1.40700000000000        1.00000000000000       0.000000000000000E+000        
  0.388000000000000       0.000000000000000E+000   1.00000000000000             
    1    1                                                                      
   1.05700000000000        1.00000000000000                                     
FINISH                                                                          
 
********************************************************************************
 One- and two-electron integrals over symmetry-adapted AOs are calculated.

  Spherical harmonics are used.
  
   4 types of atoms
   3 symmetry operations

   Reflection in the YZ-plane
   Reflection in the XZ-plane
   Reflection in the XY-plane
  
  Integrals less than  0.10E-13 are neglected.

  Atomic type number  1 :
  -----------------------

    Nuclear charge:                        6
    number of symmetry independent atoms:  1
    highest orbital type:                  f

      1 groups of CGTOs of s type
      1 groups of CGTOs of p type
      1 groups of CGTOs of d type
      1 groups of CGTOs of f type

    nuclear coordinates (in a.u.) are :

    C #1        0.000000000000000        2.636130149330000        0.000000000000000
  
   Basis function not normalized: 
   Center (as ordered in MOL file):   1
   Angular Momentum type          : s
   Offset within angular momentum :  1
   <chi|chi>                      :    2.7261534527
   Basis function not normalized: 
   Center (as ordered in MOL file):   1
   Angular Momentum type          : s
   Offset within angular momentum :  2
   <chi|chi>                      :    1.5828883092
   Basis function not normalized: 
   Center (as ordered in MOL file):   1
   Angular Momentum type          : p
   Offset within angular momentum :  1
   <chi|chi>                      :    2.1238408295
   Basis function not normalized: 
   Center (as ordered in MOL file):   1
   Angular Momentum type          : p
   Offset within angular momentum :  2
   <chi|chi>                      :    2.1530461678
   Basis function not normalized: 
   Center (as ordered in MOL file):   1
   Angular Momentum type          : p
   Offset within angular momentum :  3
   <chi|chi>                      :    4.0070861513
  Atomic type number  2 :
  -----------------------

    Nuclear charge:                        6
    number of symmetry independent atoms:  1
    highest orbital type:                  f

      1 groups of CGTOs of s type
      1 groups of CGTOs of p type
      1 groups of CGTOs of d type
      1 groups of CGTOs of f type

    nuclear coordinates (in a.u.) are :

    C #2       -2.282955677001845        1.318065074665000        0.000000000000001
  
   Basis function not normalized: 
   Center (as ordered in MOL file):   2
   Angular Momentum type          : s
   Offset within angular momentum :  1
   <chi|chi>                      :    2.7261534527
   Basis function not normalized: 
   Center (as ordered in MOL file):   2
   Angular Momentum type          : s
   Offset within angular momentum :  2
   <chi|chi>                      :    1.5828883092
   Basis function not normalized: 
   Center (as ordered in MOL file):   2
   Angular Momentum type          : p
   Offset within angular momentum :  1
   <chi|chi>                      :    2.1238408295
   Basis function not normalized: 
   Center (as ordered in MOL file):   2
   Angular Momentum type          : p
   Offset within angular momentum :  2
   <chi|chi>                      :    2.1530461678
   Basis function not normalized: 
   Center (as ordered in MOL file):   2
   Angular Momentum type          : p
   Offset within angular momentum :  3
   <chi|chi>                      :    4.0070861513
  Atomic type number  3 :
  -----------------------

    Nuclear charge:                        1
    number of symmetry independent atoms:  1
    highest orbital type:                  d

      1 groups of CGTOs of s type
      1 groups of CGTOs of p type
      1 groups of CGTOs of d type

    nuclear coordinates (in a.u.) are :

    H #3       -4.054685605690999        2.340973825924999        0.000000000000002
  
   Basis function not normalized: 
   Center (as ordered in MOL file):   3
   Angular Momentum type          : s
   Offset within angular momentum :  1
   <chi|chi>                      :    4.2221530402
  Atomic type number  4 :
  -----------------------

    Nuclear charge:                        1
    number of symmetry independent atoms:  1
    highest orbital type:                  d

      1 groups of CGTOs of s type
      1 groups of CGTOs of p type
      1 groups of CGTOs of d type

    nuclear coordinates (in a.u.) are :

    H #4        0.000000000000000       -4.681947651850000        0.000000000000001
  
   Basis function not normalized: 
   Center (as ordered in MOL file):   4
   Angular Momentum type          : s
   Offset within angular momentum :  1
   <chi|chi>                      :    4.2221530402
   Internuclear distances (A) :

     for atom C #1 (coordinates :   0.00000   2.63613   0.00000)

     C #1   3     distance is  2.790
     C #2   1     distance is  1.395
     C #2   3     distance is  2.416
     H #3   1     distance is  2.151
     H #3   3     distance is  3.397
     H #4   1     distance is  3.873
     H #4   3     distance is  1.083

     for atom C #2 (coordinates :  -2.28296   1.31807   0.00000)

     C #2   2     distance is  2.416
     C #2   3     distance is  1.395
     C #2   4     distance is  2.790
     H #3   1     distance is  1.083
     H #3   2     distance is  3.397
     H #3   3     distance is  2.151
     H #3   4     distance is  3.873
     H #4   1     distance is  3.397
     H #4   3     distance is  2.151

     for atom H #3 (coordinates :  -4.05469   2.34097   0.00000)

     H #3   2     distance is  4.291
     H #3   3     distance is  2.478
     H #3   4     distance is  4.955
     H #4   1     distance is  4.291
     H #4   3     distance is  2.478

     for atom H #4 (coordinates :   0.00000  -4.68195   0.00000)

     H #4   3     distance is  4.955

   Group multiplication table :

         1   2   3   4   5   6   7   8
         2   1   4   3   6   5   8   7
         3   4   1   2   7   8   5   6
         4   3   2   1   8   7   6   5
         5   6   7   8   1   2   3   4
         6   5   8   7   2   1   4   3
         7   8   5   6   3   4   1   2
         8   7   6   5   4   3   2   1

   Gaussian basis information :

   atom                 exponent      coefficients

 C #1  1    S   
+                 1   13575.349682   0.0002225   0.0000000   0.0000000   0.0000000   0.0000000
                  2    2035.233368   0.0017233   0.0000000   0.0000000   0.0000000   0.0000000
                  3     463.225624   0.0089256   0.0000000   0.0000000   0.0000000   0.0000000
                  4     131.200196   0.0357280   0.0000000   0.0000000   0.0000000   0.0000000
                  5      42.853016   0.1107626   0.0000000   0.0000000   0.0000000   0.0000000
                  6      15.584186   0.2429563   0.0000000   0.0000000   0.0000000   0.0000000
                  7       6.206714   0.0000000   0.4144026   0.0000000   0.0000000   0.0000000
                  8       2.576490   0.0000000   0.2374497   0.0000000   0.0000000   0.0000000
                  9       0.576963   0.0000000   0.0000000   1.0000000   0.0000000   0.0000000
                 10       0.229728   0.0000000   0.0000000   0.0000000   1.0000000   0.0000000
                 11       0.095164   0.0000000   0.0000000   0.0000000   0.0000000   1.0000000

 C #1  3    S   
+                12   13575.349682   0.0002225   0.0000000   0.0000000   0.0000000   0.0000000
                 13    2035.233368   0.0017233   0.0000000   0.0000000   0.0000000   0.0000000
                 14     463.225624   0.0089256   0.0000000   0.0000000   0.0000000   0.0000000
                 15     131.200196   0.0357280   0.0000000   0.0000000   0.0000000   0.0000000
                 16      42.853016   0.1107626   0.0000000   0.0000000   0.0000000   0.0000000
                 17      15.584186   0.2429563   0.0000000   0.0000000   0.0000000   0.0000000
                 18       6.206714   0.0000000   0.4144026   0.0000000   0.0000000   0.0000000
                 19       2.576490   0.0000000   0.2374497   0.0000000   0.0000000   0.0000000
                 20       0.576963   0.0000000   0.0000000   1.0000000   0.0000000   0.0000000
                 21       0.229728   0.0000000   0.0000000   0.0000000   1.0000000   0.0000000
                 22       0.095164   0.0000000   0.0000000   0.0000000   0.0000000   1.0000000

 C #1  1    X   
+                23      34.697232   0.0053334   0.0000000   0.0000000
                 24       7.958262   0.0358641   0.0000000   0.0000000
                 25       2.378083   0.1421587   0.0000000   0.0000000
                 26       0.814332   0.3427047   0.0000000   0.0000000
                 27       0.288875   0.0000000   0.4644582   0.0000000
                 28       0.100568   0.0000000   0.0000000   0.2495579

 C #1  3    X   
+                29      34.697232   0.0053334   0.0000000   0.0000000
                 30       7.958262   0.0358641   0.0000000   0.0000000
                 31       2.378083   0.1421587   0.0000000   0.0000000
                 32       0.814332   0.3427047   0.0000000   0.0000000
                 33       0.288875   0.0000000   0.4644582   0.0000000
                 34       0.100568   0.0000000   0.0000000   0.2495579

 C #1  1    Y   
+                35      34.697232   0.0053334   0.0000000   0.0000000
                 36       7.958262   0.0358641   0.0000000   0.0000000
                 37       2.378083   0.1421587   0.0000000   0.0000000
                 38       0.814332   0.3427047   0.0000000   0.0000000
                 39       0.288875   0.0000000   0.4644582   0.0000000
                 40       0.100568   0.0000000   0.0000000   0.2495579

 C #1  3    Y   
+                41      34.697232   0.0053334   0.0000000   0.0000000
                 42       7.958262   0.0358641   0.0000000   0.0000000
                 43       2.378083   0.1421587   0.0000000   0.0000000
                 44       0.814332   0.3427047   0.0000000   0.0000000
                 45       0.288875   0.0000000   0.4644582   0.0000000
                 46       0.100568   0.0000000   0.0000000   0.2495579

 C #1  1    Z   
+                47      34.697232   0.0053334   0.0000000   0.0000000
                 48       7.958262   0.0358641   0.0000000   0.0000000
                 49       2.378083   0.1421587   0.0000000   0.0000000
                 50       0.814332   0.3427047   0.0000000   0.0000000
                 51       0.288875   0.0000000   0.4644582   0.0000000
                 52       0.100568   0.0000000   0.0000000   0.2495579

 C #1  3    Z   
+                53      34.697232   0.0053334   0.0000000   0.0000000
                 54       7.958262   0.0358641   0.0000000   0.0000000
                 55       2.378083   0.1421587   0.0000000   0.0000000
                 56       0.814332   0.3427047   0.0000000   0.0000000
                 57       0.288875   0.0000000   0.4644582   0.0000000
                 58       0.100568   0.0000000   0.0000000   0.2495579

 C #1  1    XX  
+                59       1.097000   1.0000000   0.0000000
                 60       0.318000   0.0000000   1.0000000

 C #1  3    XX  
+                61       1.097000   1.0000000   0.0000000
                 62       0.318000   0.0000000   1.0000000

 C #1  1    XY  
+                63       1.097000   1.0000000   0.0000000
                 64       0.318000   0.0000000   1.0000000

 C #1  3    XY  
+                65       1.097000   1.0000000   0.0000000
                 66       0.318000   0.0000000   1.0000000

 C #1  1    XZ  
+                67       1.097000   1.0000000   0.0000000
                 68       0.318000   0.0000000   1.0000000

 C #1  3    XZ  
+                69       1.097000   1.0000000   0.0000000
                 70       0.318000   0.0000000   1.0000000

 C #1  1    YY  
+                71       1.097000   1.0000000   0.0000000
                 72       0.318000   0.0000000   1.0000000

 C #1  3    YY  
+                73       1.097000   1.0000000   0.0000000
                 74       0.318000   0.0000000   1.0000000

 C #1  1    YZ  
+                75       1.097000   1.0000000   0.0000000
                 76       0.318000   0.0000000   1.0000000

 C #1  3    YZ  
+                77       1.097000   1.0000000   0.0000000
                 78       0.318000   0.0000000   1.0000000

 C #1  1    ZZ  
+                79       1.097000   1.0000000   0.0000000
                 80       0.318000   0.0000000   1.0000000

 C #1  3    ZZ  
+                81       1.097000   1.0000000   0.0000000
                 82       0.318000   0.0000000   1.0000000

 C #1  1    F300
+                83       0.761000   1.0000000

 C #1  3    F300
+                84       0.761000   1.0000000

 C #1  1    F210
+                85       0.761000   1.0000000

 C #1  3    F210
+                86       0.761000   1.0000000

 C #1  1    F201
+                87       0.761000   1.0000000

 C #1  3    F201
+                88       0.761000   1.0000000

 C #1  1    F120
+                89       0.761000   1.0000000

 C #1  3    F120
+                90       0.761000   1.0000000

 C #1  1    F111
+                91       0.761000   1.0000000

 C #1  3    F111
+                92       0.761000   1.0000000

 C #1  1    F102
+                93       0.761000   1.0000000

 C #1  3    F102
+                94       0.761000   1.0000000

 C #1  1    F030
+                95       0.761000   1.0000000

 C #1  3    F030
+                96       0.761000   1.0000000

 C #1  1    F021
+                97       0.761000   1.0000000

 C #1  3    F021
+                98       0.761000   1.0000000

 C #1  1    F012
+                99       0.761000   1.0000000

 C #1  3    F012
+               100       0.761000   1.0000000

 C #1  1    F003
+               101       0.761000   1.0000000

 C #1  3    F003
+               102       0.761000   1.0000000

 C #2  1    S   
+               103   13575.349682   0.0002225   0.0000000   0.0000000   0.0000000   0.0000000
                104    2035.233368   0.0017233   0.0000000   0.0000000   0.0000000   0.0000000
                105     463.225624   0.0089256   0.0000000   0.0000000   0.0000000   0.0000000
                106     131.200196   0.0357280   0.0000000   0.0000000   0.0000000   0.0000000
                107      42.853016   0.1107626   0.0000000   0.0000000   0.0000000   0.0000000
                108      15.584186   0.2429563   0.0000000   0.0000000   0.0000000   0.0000000
                109       6.206714   0.0000000   0.4144026   0.0000000   0.0000000   0.0000000
                110       2.576490   0.0000000   0.2374497   0.0000000   0.0000000   0.0000000
                111       0.576963   0.0000000   0.0000000   1.0000000   0.0000000   0.0000000
                112       0.229728   0.0000000   0.0000000   0.0000000   1.0000000   0.0000000
                113       0.095164   0.0000000   0.0000000   0.0000000   0.0000000   1.0000000

 C #2  2    S   
+               114   13575.349682   0.0002225   0.0000000   0.0000000   0.0000000   0.0000000
                115    2035.233368   0.0017233   0.0000000   0.0000000   0.0000000   0.0000000
                116     463.225624   0.0089256   0.0000000   0.0000000   0.0000000   0.0000000
                117     131.200196   0.0357280   0.0000000   0.0000000   0.0000000   0.0000000
                118      42.853016   0.1107626   0.0000000   0.0000000   0.0000000   0.0000000
                119      15.584186   0.2429563   0.0000000   0.0000000   0.0000000   0.0000000
                120       6.206714   0.0000000   0.4144026   0.0000000   0.0000000   0.0000000
                121       2.576490   0.0000000   0.2374497   0.0000000   0.0000000   0.0000000
                122       0.576963   0.0000000   0.0000000   1.0000000   0.0000000   0.0000000
                123       0.229728   0.0000000   0.0000000   0.0000000   1.0000000   0.0000000
                124       0.095164   0.0000000   0.0000000   0.0000000   0.0000000   1.0000000

 C #2  3    S   
+               125   13575.349682   0.0002225   0.0000000   0.0000000   0.0000000   0.0000000
                126    2035.233368   0.0017233   0.0000000   0.0000000   0.0000000   0.0000000
                127     463.225624   0.0089256   0.0000000   0.0000000   0.0000000   0.0000000
                128     131.200196   0.0357280   0.0000000   0.0000000   0.0000000   0.0000000
                129      42.853016   0.1107626   0.0000000   0.0000000   0.0000000   0.0000000
                130      15.584186   0.2429563   0.0000000   0.0000000   0.0000000   0.0000000
                131       6.206714   0.0000000   0.4144026   0.0000000   0.0000000   0.0000000
                132       2.576490   0.0000000   0.2374497   0.0000000   0.0000000   0.0000000
                133       0.576963   0.0000000   0.0000000   1.0000000   0.0000000   0.0000000
                134       0.229728   0.0000000   0.0000000   0.0000000   1.0000000   0.0000000
                135       0.095164   0.0000000   0.0000000   0.0000000   0.0000000   1.0000000

 C #2  4    S   
+               136   13575.349682   0.0002225   0.0000000   0.0000000   0.0000000   0.0000000
                137    2035.233368   0.0017233   0.0000000   0.0000000   0.0000000   0.0000000
                138     463.225624   0.0089256   0.0000000   0.0000000   0.0000000   0.0000000
                139     131.200196   0.0357280   0.0000000   0.0000000   0.0000000   0.0000000
                140      42.853016   0.1107626   0.0000000   0.0000000   0.0000000   0.0000000
                141      15.584186   0.2429563   0.0000000   0.0000000   0.0000000   0.0000000
                142       6.206714   0.0000000   0.4144026   0.0000000   0.0000000   0.0000000
                143       2.576490   0.0000000   0.2374497   0.0000000   0.0000000   0.0000000
                144       0.576963   0.0000000   0.0000000   1.0000000   0.0000000   0.0000000
                145       0.229728   0.0000000   0.0000000   0.0000000   1.0000000   0.0000000
                146       0.095164   0.0000000   0.0000000   0.0000000   0.0000000   1.0000000

 C #2  1    X   
+               147      34.697232   0.0053334   0.0000000   0.0000000
                148       7.958262   0.0358641   0.0000000   0.0000000
                149       2.378083   0.1421587   0.0000000   0.0000000
                150       0.814332   0.3427047   0.0000000   0.0000000
                151       0.288875   0.0000000   0.4644582   0.0000000
                152       0.100568   0.0000000   0.0000000   0.2495579

 C #2  2    X   
+               153      34.697232   0.0053334   0.0000000   0.0000000
                154       7.958262   0.0358641   0.0000000   0.0000000
                155       2.378083   0.1421587   0.0000000   0.0000000
                156       0.814332   0.3427047   0.0000000   0.0000000
                157       0.288875   0.0000000   0.4644582   0.0000000
                158       0.100568   0.0000000   0.0000000   0.2495579

 C #2  3    X   
+               159      34.697232   0.0053334   0.0000000   0.0000000
                160       7.958262   0.0358641   0.0000000   0.0000000
                161       2.378083   0.1421587   0.0000000   0.0000000
                162       0.814332   0.3427047   0.0000000   0.0000000
                163       0.288875   0.0000000   0.4644582   0.0000000
                164       0.100568   0.0000000   0.0000000   0.2495579

 C #2  4    X   
+               165      34.697232   0.0053334   0.0000000   0.0000000
                166       7.958262   0.0358641   0.0000000   0.0000000
                167       2.378083   0.1421587   0.0000000   0.0000000
                168       0.814332   0.3427047   0.0000000   0.0000000
                169       0.288875   0.0000000   0.4644582   0.0000000
                170       0.100568   0.0000000   0.0000000   0.2495579

 C #2  1    Y   
+               171      34.697232   0.0053334   0.0000000   0.0000000
                172       7.958262   0.0358641   0.0000000   0.0000000
                173       2.378083   0.1421587   0.0000000   0.0000000
                174       0.814332   0.3427047   0.0000000   0.0000000
                175       0.288875   0.0000000   0.4644582   0.0000000
                176       0.100568   0.0000000   0.0000000   0.2495579

 C #2  2    Y   
+               177      34.697232   0.0053334   0.0000000   0.0000000
                178       7.958262   0.0358641   0.0000000   0.0000000
                179       2.378083   0.1421587   0.0000000   0.0000000
                180       0.814332   0.3427047   0.0000000   0.0000000
                181       0.288875   0.0000000   0.4644582   0.0000000
                182       0.100568   0.0000000   0.0000000   0.2495579

 C #2  3    Y   
+               183      34.697232   0.0053334   0.0000000   0.0000000
                184       7.958262   0.0358641   0.0000000   0.0000000
                185       2.378083   0.1421587   0.0000000   0.0000000
                186       0.814332   0.3427047   0.0000000   0.0000000
                187       0.288875   0.0000000   0.4644582   0.0000000
                188       0.100568   0.0000000   0.0000000   0.2495579

 C #2  4    Y   
+               189      34.697232   0.0053334   0.0000000   0.0000000
                190       7.958262   0.0358641   0.0000000   0.0000000
                191       2.378083   0.1421587   0.0000000   0.0000000
                192       0.814332   0.3427047   0.0000000   0.0000000
                193       0.288875   0.0000000   0.4644582   0.0000000
                194       0.100568   0.0000000   0.0000000   0.2495579

 C #2  1    Z   
+               195      34.697232   0.0053334   0.0000000   0.0000000
                196       7.958262   0.0358641   0.0000000   0.0000000
                197       2.378083   0.1421587   0.0000000   0.0000000
                198       0.814332   0.3427047   0.0000000   0.0000000
                199       0.288875   0.0000000   0.4644582   0.0000000
                200       0.100568   0.0000000   0.0000000   0.2495579

 C #2  2    Z   
+               201      34.697232   0.0053334   0.0000000   0.0000000
                202       7.958262   0.0358641   0.0000000   0.0000000
                203       2.378083   0.1421587   0.0000000   0.0000000
                204       0.814332   0.3427047   0.0000000   0.0000000
                205       0.288875   0.0000000   0.4644582   0.0000000
                206       0.100568   0.0000000   0.0000000   0.2495579

 C #2  3    Z   
+               207      34.697232   0.0053334   0.0000000   0.0000000
                208       7.958262   0.0358641   0.0000000   0.0000000
                209       2.378083   0.1421587   0.0000000   0.0000000
                210       0.814332   0.3427047   0.0000000   0.0000000
                211       0.288875   0.0000000   0.4644582   0.0000000
                212       0.100568   0.0000000   0.0000000   0.2495579

 C #2  4    Z   
+               213      34.697232   0.0053334   0.0000000   0.0000000
                214       7.958262   0.0358641   0.0000000   0.0000000
                215       2.378083   0.1421587   0.0000000   0.0000000
                216       0.814332   0.3427047   0.0000000   0.0000000
                217       0.288875   0.0000000   0.4644582   0.0000000
                218       0.100568   0.0000000   0.0000000   0.2495579

 C #2  1    XX  
+               219       1.097000   1.0000000   0.0000000
                220       0.318000   0.0000000   1.0000000

 C #2  2    XX  
+               221       1.097000   1.0000000   0.0000000
                222       0.318000   0.0000000   1.0000000

 C #2  3    XX  
+               223       1.097000   1.0000000   0.0000000
                224       0.318000   0.0000000   1.0000000

 C #2  4    XX  
+               225       1.097000   1.0000000   0.0000000
                226       0.318000   0.0000000   1.0000000

 C #2  1    XY  
+               227       1.097000   1.0000000   0.0000000
                228       0.318000   0.0000000   1.0000000

 C #2  2    XY  
+               229       1.097000   1.0000000   0.0000000
                230       0.318000   0.0000000   1.0000000

 C #2  3    XY  
+               231       1.097000   1.0000000   0.0000000
                232       0.318000   0.0000000   1.0000000

 C #2  4    XY  
+               233       1.097000   1.0000000   0.0000000
                234       0.318000   0.0000000   1.0000000

 C #2  1    XZ  
+               235       1.097000   1.0000000   0.0000000
                236       0.318000   0.0000000   1.0000000

 C #2  2    XZ  
+               237       1.097000   1.0000000   0.0000000
                238       0.318000   0.0000000   1.0000000

 C #2  3    XZ  
+               239       1.097000   1.0000000   0.0000000
                240       0.318000   0.0000000   1.0000000

 C #2  4    XZ  
+               241       1.097000   1.0000000   0.0000000
                242       0.318000   0.0000000   1.0000000

 C #2  1    YY  
+               243       1.097000   1.0000000   0.0000000
                244       0.318000   0.0000000   1.0000000

 C #2  2    YY  
+               245       1.097000   1.0000000   0.0000000
                246       0.318000   0.0000000   1.0000000

 C #2  3    YY  
+               247       1.097000   1.0000000   0.0000000
                248       0.318000   0.0000000   1.0000000

 C #2  4    YY  
+               249       1.097000   1.0000000   0.0000000
                250       0.318000   0.0000000   1.0000000

 C #2  1    YZ  
+               251       1.097000   1.0000000   0.0000000
                252       0.318000   0.0000000   1.0000000

 C #2  2    YZ  
+               253       1.097000   1.0000000   0.0000000
                254       0.318000   0.0000000   1.0000000

 C #2  3    YZ  
+               255       1.097000   1.0000000   0.0000000
                256       0.318000   0.0000000   1.0000000

 C #2  4    YZ  
+               257       1.097000   1.0000000   0.0000000
                258       0.318000   0.0000000   1.0000000

 C #2  1    ZZ  
+               259       1.097000   1.0000000   0.0000000
                260       0.318000   0.0000000   1.0000000

 C #2  2    ZZ  
+               261       1.097000   1.0000000   0.0000000
                262       0.318000   0.0000000   1.0000000

 C #2  3    ZZ  
+               263       1.097000   1.0000000   0.0000000
                264       0.318000   0.0000000   1.0000000

 C #2  4    ZZ  
+               265       1.097000   1.0000000   0.0000000
                266       0.318000   0.0000000   1.0000000

 C #2  1    F300
+               267       0.761000   1.0000000

 C #2  2    F300
+               268       0.761000   1.0000000

 C #2  3    F300
+               269       0.761000   1.0000000

 C #2  4    F300
+               270       0.761000   1.0000000

 C #2  1    F210
+               271       0.761000   1.0000000

 C #2  2    F210
+               272       0.761000   1.0000000

 C #2  3    F210
+               273       0.761000   1.0000000

 C #2  4    F210
+               274       0.761000   1.0000000

 C #2  1    F201
+               275       0.761000   1.0000000

 C #2  2    F201
+               276       0.761000   1.0000000

 C #2  3    F201
+               277       0.761000   1.0000000

 C #2  4    F201
+               278       0.761000   1.0000000

 C #2  1    F120
+               279       0.761000   1.0000000

 C #2  2    F120
+               280       0.761000   1.0000000

 C #2  3    F120
+               281       0.761000   1.0000000

 C #2  4    F120
+               282       0.761000   1.0000000

 C #2  1    F111
+               283       0.761000   1.0000000

 C #2  2    F111
+               284       0.761000   1.0000000

 C #2  3    F111
+               285       0.761000   1.0000000

 C #2  4    F111
+               286       0.761000   1.0000000

 C #2  1    F102
+               287       0.761000   1.0000000

 C #2  2    F102
+               288       0.761000   1.0000000

 C #2  3    F102
+               289       0.761000   1.0000000

 C #2  4    F102
+               290       0.761000   1.0000000

 C #2  1    F030
+               291       0.761000   1.0000000

 C #2  2    F030
+               292       0.761000   1.0000000

 C #2  3    F030
+               293       0.761000   1.0000000

 C #2  4    F030
+               294       0.761000   1.0000000

 C #2  1    F021
+               295       0.761000   1.0000000

 C #2  2    F021
+               296       0.761000   1.0000000

 C #2  3    F021
+               297       0.761000   1.0000000

 C #2  4    F021
+               298       0.761000   1.0000000

 C #2  1    F012
+               299       0.761000   1.0000000

 C #2  2    F012
+               300       0.761000   1.0000000

 C #2  3    F012
+               301       0.761000   1.0000000

 C #2  4    F012
+               302       0.761000   1.0000000

 C #2  1    F003
+               303       0.761000   1.0000000

 C #2  2    F003
+               304       0.761000   1.0000000

 C #2  3    F003
+               305       0.761000   1.0000000

 C #2  4    F003
+               306       0.761000   1.0000000

 H #3  1    S   
+               307      34.061341   0.0060252   0.0000000   0.0000000
                308       5.123575   0.0450211   0.0000000   0.0000000
                309       1.164663   0.2018973   0.0000000   0.0000000
                310       0.327230   0.0000000   1.0000000   0.0000000
                311       0.103072   0.0000000   0.0000000   1.0000000

 H #3  2    S   
+               312      34.061341   0.0060252   0.0000000   0.0000000
                313       5.123575   0.0450211   0.0000000   0.0000000
                314       1.164663   0.2018973   0.0000000   0.0000000
                315       0.327230   0.0000000   1.0000000   0.0000000
                316       0.103072   0.0000000   0.0000000   1.0000000

 H #3  3    S   
+               317      34.061341   0.0060252   0.0000000   0.0000000
                318       5.123575   0.0450211   0.0000000   0.0000000
                319       1.164663   0.2018973   0.0000000   0.0000000
                320       0.327230   0.0000000   1.0000000   0.0000000
                321       0.103072   0.0000000   0.0000000   1.0000000

 H #3  4    S   
+               322      34.061341   0.0060252   0.0000000   0.0000000
                323       5.123575   0.0450211   0.0000000   0.0000000
                324       1.164663   0.2018973   0.0000000   0.0000000
                325       0.327230   0.0000000   1.0000000   0.0000000
                326       0.103072   0.0000000   0.0000000   1.0000000

 H #3  1    X   
+               327       1.407000   1.0000000   0.0000000
                328       0.388000   0.0000000   1.0000000

 H #3  2    X   
+               329       1.407000   1.0000000   0.0000000
                330       0.388000   0.0000000   1.0000000

 H #3  3    X   
+               331       1.407000   1.0000000   0.0000000
                332       0.388000   0.0000000   1.0000000

 H #3  4    X   
+               333       1.407000   1.0000000   0.0000000
                334       0.388000   0.0000000   1.0000000

 H #3  1    Y   
+               335       1.407000   1.0000000   0.0000000
                336       0.388000   0.0000000   1.0000000

 H #3  2    Y   
+               337       1.407000   1.0000000   0.0000000
                338       0.388000   0.0000000   1.0000000

 H #3  3    Y   
+               339       1.407000   1.0000000   0.0000000
                340       0.388000   0.0000000   1.0000000

 H #3  4    Y   
+               341       1.407000   1.0000000   0.0000000
                342       0.388000   0.0000000   1.0000000

 H #3  1    Z   
+               343       1.407000   1.0000000   0.0000000
                344       0.388000   0.0000000   1.0000000

 H #3  2    Z   
+               345       1.407000   1.0000000   0.0000000
                346       0.388000   0.0000000   1.0000000

 H #3  3    Z   
+               347       1.407000   1.0000000   0.0000000
                348       0.388000   0.0000000   1.0000000

 H #3  4    Z   
+               349       1.407000   1.0000000   0.0000000
                350       0.388000   0.0000000   1.0000000

 H #3  1    XX  
+               351       1.057000   1.0000000

 H #3  2    XX  
+               352       1.057000   1.0000000

 H #3  3    XX  
+               353       1.057000   1.0000000

 H #3  4    XX  
+               354       1.057000   1.0000000

 H #3  1    XY  
+               355       1.057000   1.0000000

 H #3  2    XY  
+               356       1.057000   1.0000000

 H #3  3    XY  
+               357       1.057000   1.0000000

 H #3  4    XY  
+               358       1.057000   1.0000000

 H #3  1    XZ  
+               359       1.057000   1.0000000

 H #3  2    XZ  
+               360       1.057000   1.0000000

 H #3  3    XZ  
+               361       1.057000   1.0000000

 H #3  4    XZ  
+               362       1.057000   1.0000000

 H #3  1    YY  
+               363       1.057000   1.0000000

 H #3  2    YY  
+               364       1.057000   1.0000000

 H #3  3    YY  
+               365       1.057000   1.0000000

 H #3  4    YY  
+               366       1.057000   1.0000000

 H #3  1    YZ  
+               367       1.057000   1.0000000

 H #3  2    YZ  
+               368       1.057000   1.0000000

 H #3  3    YZ  
+               369       1.057000   1.0000000

 H #3  4    YZ  
+               370       1.057000   1.0000000

 H #3  1    ZZ  
+               371       1.057000   1.0000000

 H #3  2    ZZ  
+               372       1.057000   1.0000000

 H #3  3    ZZ  
+               373       1.057000   1.0000000

 H #3  4    ZZ  
+               374       1.057000   1.0000000

 H #4  1    S   
+               375      34.061341   0.0060252   0.0000000   0.0000000
                376       5.123575   0.0450211   0.0000000   0.0000000
                377       1.164663   0.2018973   0.0000000   0.0000000
                378       0.327230   0.0000000   1.0000000   0.0000000
                379       0.103072   0.0000000   0.0000000   1.0000000

 H #4  3    S   
+               380      34.061341   0.0060252   0.0000000   0.0000000
                381       5.123575   0.0450211   0.0000000   0.0000000
                382       1.164663   0.2018973   0.0000000   0.0000000
                383       0.327230   0.0000000   1.0000000   0.0000000
                384       0.103072   0.0000000   0.0000000   1.0000000

 H #4  1    X   
+               385       1.407000   1.0000000   0.0000000
                386       0.388000   0.0000000   1.0000000

 H #4  3    X   
+               387       1.407000   1.0000000   0.0000000
                388       0.388000   0.0000000   1.0000000

 H #4  1    Y   
[...]
   The AB contribution to the correlation energy is:   -0.7603119 a.u.
   The total correlation energy is -0.972423771825 a.u.
   The total correlation energy is -0.972423771825 a.u.
  Current DIIS expansion coefficients : 
 [   1] 1.0539168973 [   2] 0.0023932014 [   3]-0.0034283378 [   4]-0.0585074550
 [   5] 0.0056256942
  Convergence information after    11 iterations: 
  Largest element of residual vector : -0.32847618E-06.
  Largest element of DIIS residual   : -0.29611342E-06.
  W(mnij) AB contribution =  0.1464997758 a.u.
  W(abef) AB contribution =  0.2202627587 a.u.
  W(mbej) AB contribution = -0.4928759648 a.u.
   After  12 iterations, amplitude changes are:
    -------------------------------------------------------------------
                 Spin      RMS          Max.      Max. change for
     Amplitude   Case     Change       Change       i    j    a    b
    -------------------------------------------------------------------
        T1        AA    0.0000000002 0.0000000710   15       225
        T2        AA    0.0000000000-0.0000000299   15   13  224  184
        T2        AB    0.0000000000-0.0000001591   15   15  184  184
    -------------------------------------------------------------------
   The AA contribution to the correlation energy is:   -0.1060559 a.u.
   The AB contribution to the correlation energy is:   -0.7603120 a.u.
   The total correlation energy is -0.972423840369 a.u.
   The total correlation energy is -0.972423840369 a.u.
  Current DIIS expansion coefficients : 
 [   1]-0.3819424859 [   2] 1.4505713914 [   3] 0.0038925649 [   4] 0.0228322535
 [   5]-0.0953537239
  Convergence information after    12 iterations: 
  Largest element of residual vector : -0.15910145E-06.
  Largest element of DIIS residual   : -0.10091520E-06.
  W(mnij) AB contribution =  0.1464998772 a.u.
  W(abef) AB contribution =  0.2202628848 a.u.
  W(mbej) AB contribution = -0.4928764337 a.u.
   After  13 iterations, amplitude changes are:
    -------------------------------------------------------------------
                 Spin      RMS          Max.      Max. change for
     Amplitude   Case     Change       Change       i    j    a    b
    -------------------------------------------------------------------
        T1        AA    0.0000000001 0.0000000156   14       207
        T2        AA    0.0000000000 0.0000000137   15   14  247  184
        T2        AB    0.0000000000-0.0000000625   15   15  184  184
    -------------------------------------------------------------------
   The AA contribution to the correlation energy is:   -0.1060559 a.u.
   The AB contribution to the correlation energy is:   -0.7603121 a.u.
   The total correlation energy is -0.972423886762 a.u.
   The total correlation energy is -0.972423886762 a.u.
  Current DIIS expansion coefficients : 
 [   1]-0.1610394895 [   2]-0.0407874527 [   3] 1.1773954196 [   4] 0.0048604578
 [   5] 0.0195710648
  Convergence information after    13 iterations: 
  Largest element of residual vector : -0.62488930E-07.
  Largest element of DIIS residual   : -0.31517423E-07.
  W(mnij) AB contribution =  0.1464999045 a.u.
  W(abef) AB contribution =  0.2202629212 a.u.
  W(mbej) AB contribution = -0.4928765698 a.u.
   After  14 iterations, amplitude changes are:
    -------------------------------------------------------------------
                 Spin      RMS          Max.      Max. change for
     Amplitude   Case     Change       Change       i    j    a    b
    -------------------------------------------------------------------
        T1        AA    0.0000000000 0.0000000079   13       185
        T2        AA    0.0000000000 0.0000000037   15   14  247  184
        T2        AB    0.0000000000-0.0000000170   15   15  184  184
    -------------------------------------------------------------------
   The AA contribution to the correlation energy is:   -0.1060559 a.u.
   The AB contribution to the correlation energy is:   -0.7603121 a.u.
   The total correlation energy is -0.972423897346 a.u.
   The total correlation energy is -0.972423897346 a.u.
  Current DIIS expansion coefficients : 
 [   1] 0.0190606955 [   2]-0.0803785735 [   3]-0.0932284360 [   4] 1.1494318268
 [   5] 0.0051144872
  Convergence information after    14 iterations: 
  Largest element of residual vector : -0.16986531E-07.
  Largest element of DIIS residual   : -0.98767603E-08.
  W(mnij) AB contribution =  0.1464999067 a.u.
  W(abef) AB contribution =  0.2202629246 a.u.
  W(mbej) AB contribution = -0.4928765865 a.u.
   After  15 iterations, amplitude changes are:
    -------------------------------------------------------------------
                 Spin      RMS          Max.      Max. change for
     Amplitude   Case     Change       Change       i    j    a    b
    -------------------------------------------------------------------
        T1        AA    0.0000000000 0.0000000021    6        63
        T2        AA    0.0000000000 0.0000000014   15   14  247  184
        T2        AB    0.0000000000-0.0000000050   15   15  184  184
    -------------------------------------------------------------------
   The AA contribution to the correlation energy is:   -0.1060559 a.u.
   The AB contribution to the correlation energy is:   -0.7603121 a.u.
   The total correlation energy is -0.972423898467 a.u.
   The total correlation energy is -0.972423898467 a.u.
  Current DIIS expansion coefficients : 
 [   1] 0.0054873247 [   2] 0.0160925424 [   3]-0.1118410664 [   4]-0.0379574907
 [   5] 1.1282186900
  Convergence information after    15 iterations: 
  Largest element of residual vector : -0.50104534E-08.
  Largest element of DIIS residual   : -0.29081529E-08.
   Largest T1 amplitudes for spin case AA:
   i       a                 i       a                 i       a    
-----------------------------------------------------------------------------
[ 15     225    ] 0.02114 [ 14     207    ] 0.02114 [  3      20    ] 0.01188
[ 15     232    ] 0.01181 [ 14     212    ]-0.01181 [  6      63    ]-0.01100
[ 13     185    ] 0.01099 [ 13     192    ] 0.01094 [ 15     230    ] 0.01030
[ 14     211    ] 0.01030 [ 14     209    ]-0.00832 [ 15     227    ] 0.00832
[  7      65    ]-0.00732 [ 10     102    ] 0.00732 [  6      69    ]-0.00685
-----------------------------------------------------------------------------
   Norm of T1AA vector (      575 symmetry allowed elements):  0.0555955857.
-----------------------------------------------------------------------------
   Largest T2 amplitudes for spin case AB:
       _       _                 _       _                 _       _
   i   j   a   b             i   j   a   b             i   j   a   b
-----------------------------------------------------------------------------
[ 14  14 247 247]-0.07757 [ 15  15 184 184]-0.07757 [ 15  14 247 184] 0.04593
[ 14  15 184 247] 0.04593 [ 14  14 184 184]-0.03313 [ 15  15 247 247]-0.03313
[ 15  13 224 184]-0.03080 [ 13  15 184 224]-0.03080 [ 14  13 224 247] 0.03080
[ 13  14 247 224] 0.03080 [ 14  14 248 247]-0.02896 [ 14  14 247 248]-0.02896
[ 15  15 186 184]-0.02896 [ 15  15 184 186]-0.02896 [ 13  13 184 184]-0.02435
-----------------------------------------------------------------------------
   Norm of T2AB vector (  1821377 symmetry allowed elements):  0.5331023947.
-----------------------------------------------------------------------------
  W(mnij) AB contribution =  0.1464999063 a.u.
  W(abef) AB contribution =  0.2202629239 a.u.
  W(mbej) AB contribution = -0.4928765865 a.u.
   After  16 iterations, amplitude changes are:
    -------------------------------------------------------------------
                 Spin      RMS          Max.      Max. change for
     Amplitude   Case     Change       Change       i    j    a    b
    -------------------------------------------------------------------
        T1        AA    0.0000000000 0.0000000012    6        63
        T2        AA    0.0000000000-0.0000000005   15   13  224  184
        T2        AB    0.0000000000-0.0000000016   15   15  184  184
    -------------------------------------------------------------------
   The AA contribution to the correlation energy is:   -0.1060559 a.u.
   The AB contribution to the correlation energy is:   -0.7603121 a.u.
   The total correlation energy is -0.972423898456 a.u.
   The total correlation energy is -0.972423898456 a.u.
  Current DIIS expansion coefficients : 
 [   1] 1.0765274077 [   2] 0.0037223574 [   3] 0.0022666836 [   4]-0.0771721919
 [   5]-0.0053442568
  Convergence information after    16 iterations: 
  Largest element of residual vector : -0.15606976E-08.
  Largest element of DIIS residual   : -0.10763438E-08.
  W(mnij) AB contribution =  0.1464999061 a.u.
  W(abef) AB contribution =  0.2202629237 a.u.
  W(mbej) AB contribution = -0.4928765861 a.u.
   After  17 iterations, amplitude changes are:
    -------------------------------------------------------------------
                 Spin      RMS          Max.      Max. change for
     Amplitude   Case     Change       Change       i    j    a    b
    -------------------------------------------------------------------
        T1        AA    0.0000000000-0.0000000005   13       185
        T2        AA    0.0000000000-0.0000000002   15   13  224  184
        T2        AB    0.0000000000 0.0000000004   13   13  184  184
    -------------------------------------------------------------------
   The AA contribution to the correlation energy is:   -0.1060559 a.u.
   The AB contribution to the correlation energy is:   -0.7603121 a.u.
   The total correlation energy is -0.972423898235 a.u.
   The total correlation energy is -0.972423898235 a.u.
  Current DIIS expansion coefficients : 
 [   1]-0.0846829045 [   2] 1.1534040166 [   3] 0.0053901170 [   4] 0.0104933405
 [   5]-0.0846045695
  Convergence information after    17 iterations: 
  Largest element of residual vector : -0.50142555E-09.
  Largest element of DIIS residual   : -0.41450647E-09.
  Amplitude equations converged in    17iterations.
   The AA contribution to the correlation energy is:   -0.1060559 a.u.
   The AB contribution to the correlation energy is:   -0.7603121 a.u.
   The total correlation energy is -0.972423898126 a.u.
   The total correlation energy is -0.972423898126 a.u.
   The CC iterations have converged.

   Largest T1 amplitudes for spin case AA:
   i       a                 i       a                 i       a    
-----------------------------------------------------------------------------
[ 14     207    ] 0.02114 [ 15     225    ] 0.02114 [  3      20    ] 0.01188
[ 14     212    ]-0.01181 [ 15     232    ] 0.01181 [  6      63    ]-0.01100
[ 13     185    ] 0.01099 [ 13     192    ] 0.01094 [ 15     230    ] 0.01030
[ 14     211    ] 0.01030 [ 15     227    ] 0.00832 [ 14     209    ]-0.00832
[  7      65    ]-0.00732 [ 10     102    ] 0.00732 [  6      69    ]-0.00685
-----------------------------------------------------------------------------
   Norm of T1AA vector (      575 symmetry allowed elements):  0.0555955833.
-----------------------------------------------------------------------------
   Largest T2 amplitudes for spin case AB:
       _       _                 _       _                 _       _
   i   j   a   b             i   j   a   b             i   j   a   b
-----------------------------------------------------------------------------
[ 14  14 247 247]-0.07757 [ 15  15 184 184]-0.07757 [ 15  14 247 184] 0.04593
[ 14  15 184 247] 0.04593 [ 14  14 184 184]-0.03313 [ 15  15 247 247]-0.03313
[ 15  13 224 184]-0.03080 [ 13  15 184 224]-0.03080 [ 14  13 224 247] 0.03080
[ 13  14 247 224] 0.03080 [ 14  14 248 247]-0.02896 [ 14  14 247 248]-0.02896
[ 15  15 186 184]-0.02896 [ 15  15 184 186]-0.02896 [ 13  13 184 184]-0.02435
-----------------------------------------------------------------------------
   Norm of T2AB vector (  1821377 symmetry allowed elements):  0.5331023945.
-----------------------------------------------------------------------------
       Summary of iterative solution of CC equations 
      -----------------------------------------------------------
                       Correlation           Total
       Iteration         Energy              Energy
      -----------------------------------------------------------
            0        -0.947205478097    -231.733359227095  DIIS 
            1        -0.941919265239    -231.728073014237  DIIS 
            2        -0.969583369627    -231.755737118625  DIIS 
            3        -0.969228576950    -231.755382325948  DIIS 
            4        -0.972142710222    -231.758296459220  DIIS 
            5        -0.972417087307    -231.758570836305  DIIS 
            6        -0.972430272480    -231.758584021478  DIIS 
            7        -0.972425565905    -231.758579314903  DIIS 
            8        -0.972422916569    -231.758576665567  DIIS 
            9        -0.972423215911    -231.758576964909  DIIS 
           10        -0.972423553747    -231.758577302745  DIIS 
           11        -0.972423771825    -231.758577520823  DIIS 
           12        -0.972423840369    -231.758577589367  DIIS 
           13        -0.972423886762    -231.758577635761  DIIS 
           14        -0.972423897346    -231.758577646344  DIIS 
           15        -0.972423898467    -231.758577647465  DIIS 
           16        -0.972423898456    -231.758577647454  DIIS 
           17        -0.972423898126    -231.758577647124  DIIS 
      -----------------------------------------------------------
      A miracle has come to pass. The CC iterations have converged.
 @DIMT3-I, Dimensions of T3 amplitudes : 
               # abc          # ijk       Symmetry    Spin 
                   330152             58     1          1
                   330239             64     2          1
                   330029             64     3          1
                   330116             70     4          1
                   305556             49     5          1
                   305299             48     6          1
                   305557             48     7          1
                   305176             54     8          1
                  1001864            230     1          2
                   999893            234     2          2
                  1001743            234     3          2
                   999772            238     4          2
                   922372            161     5          2
                   920113            158     6          2
                   922375            158     7          2
                   919992            162     8          2
                  1001864            230     1          3
                   999893            234     2          3
                  1001743            234     3          3
                   999772            238     4          3
                   922372            161     5          3
                   920113            158     6          3
                   922375            158     7          3
                   919992            162     8          3
                   330152             58     1          4
                   330239             64     2          4
                   330029             64     3          4
                   330116             70     4          4
                   305556             49     5          4
                   305299             48     6          4
                   305557             48     7          4
                   305176             54     8          4
 @DIMT3-I, Dimensions of T3 amplitudes : 
               # abc          # ijk       Symmetry    Spin 
                   330152             58     1          1
                   330239             64     2          1
                   330029             64     3          1
                   330116             70     4          1
                   305556             49     5          1
                   305299             48     6          1
                   305557             48     7          1
                   305176             54     8          1
                  1001864            230     1          2
                   999893            234     2          2
                  1001743            234     3          2
                   999772            238     4          2
                   922372            161     5          2
                   920113            158     6          2
                   922375            158     7          2
                   919992            162     8          2
                  1001864            230     1          3
                   999893            234     2          3
                  1001743            234     3          3
                   999772            238     4          3
                   922372            161     5          3
                   920113            158     6          3
                   922375            158     7          3
                   919992            162     8          3
                   330152             58     1          4
                   330239             64     2          4
                   330029             64     3          4
                   330116             70     4          4
                   305556             49     5          4
                   305299             48     6          4
                   305557             48     7          4
                   305176             54     8          4
 @TRPS-I, Welcome to TRPS. Watch your RUs ! 
 @TRPS-I, Method is CCSD(T) 
 @TRPS-I, Calculation type is energy 
 @TRPS-I, Reference function information : 
          Reference function is Hartree-Fock 
          Reference function is RHF Hartree-Fock 
 @TRPS-I, INT1 is true 
 @TRPS-I, INT2 is false 
 @TRPS-I, Lengths of ijka integrals. #1      52219
                                     #2      52219
                                     #3     113063
                                     #4     113063
                                    Max     113063
 @INITRP-I, Initializing W intermediate lists. 
 @SETOOOV-I, Some OOOV lists are being transposed. 
 @TRPS-I, Available memory in integer words   1499959040
          Number of pre-allocated words for TRPS2       560204
          Number of free words for TRPS2   1499398836
 @TRPS2-I, Spin case AAB 
 @TRPS2-I, Number of free integer words 1499398836
           Number of free double  words 1499398836
           Ratio                                 1
 @TRPS2-I, E4TBAA      -0.024648038361
  @TRPS2-I, E4TAAA  -1.688739018446109E-003
 @TRPS2-I, E5ST A    0.000279994793486
 @TRPS2-I, E5ST B    0.000201541420135
 @SETOOOV-I, Some OOOV lists are being transposed. 
 @CCENRG-I, CCSD/QCISD energy will now be evaluated. 
 @CCENRG-I, Correlation energies. ECCAA       -0.106055901938
                                  ECCBB        0.000000000000
                                  ECCAB       -0.760312094250
                                  Total       -0.972423898126
 @CCENRG-I, Reference   energy    -230.786153748998
            CCSD/QCISD energy     -231.758577647124
          E4T (T(CCSD)) = -0.052673554759
          E5ST          =  0.000963072427
          E4ST          =  0.000000000000
          In other words  
          <T3[2](Dagger) D3  T3[2]> = -0.052673554759
          <T1   (Dagger) Q1 WT3[2]> =  0.000963072427
          <T2   (Dagger) Q2 FT3[2]> =  0.000000000000
        E(CCSD)           =    -231.758577647124
        E(CCSD + T(CCSD)) =    -231.811251201883
        E(CCSD(T))        =    -231.810288129456
  @CHECKOUT-I, Total execution time (CPU/WALL):      262.22/     275.18 seconds.
--executable xvcc finished with status     0 in      275.41 seconds (walltime).
  The final electronic energy is      -231.810288129455955 a.u. 
  This computation required                          934.51 seconds (walltime).
