 --invoking executable--
/project1/nike/cfour_v2.00beta_May2019xnmol_noLABBASIS/bin/xjoda


   *************************************************************************
         <<<     CCCCCC     CCCCCC   |||     CCCCCC     CCCCCC   >>>
       <<<      CCC        CCC       |||    CCC        CCC         >>>
      <<<      CCC        CCC        |||   CCC        CCC            >>>
    <<<        CCC        CCC        |||   CCC        CCC              >>>
      <<<      CCC        CCC        |||   CCC        CCC            >>>
       <<<      CCC        CCC       |||    CCC        CCC         >>>
         <<<     CCCCCC     CCCCCC   |||     CCCCCC     CCCCCC   >>>
   *************************************************************************

     ****************************************************************
     * CFOUR Coupled-Cluster techniques for Computational Chemistry *
     ****************************************************************
 

   Department of Chemistry                Institut fuer Physikalische Chemie
   University of Texas at Austin          Universitaet Mainz
   Austin, TX  78712, USA                 D-55099 Mainz, Germany
 
                       Version 2.00beta
 
                     req130                                            
                     Tue Mar 10 00:28:06 EDT 2020                      
                     integer*8 version is running
 
********************************************************************************
*                          Input from ZMAT file                                *
********************************************************************************
TITLE                                                                           
H                                                                               
S 1 R1                                                                          
H 2 R1 1 A                                                                      
                                                                                
R1=2.52391821205                                                                
A=92.12                                                                         
                                                                                
*ACES2(CALC=CCSD(T)                                                             
UNITS=BOHR                                                                      
#GEOM=1.3356*10/5.29177210903                                                   
#COORD=CARTESIAN                                                                
COORD=INTERNAL                                                                  
PRINT=4                                                                         
JODA_PRINT=4                                                                    
INPUT_MRCC=OFF                                                                  
#CC_PROG=MRCC                                                                   
#FROZEN_CORE=ON                                                                 
DROPMO=1>5                                                                      
CONTRACTION=GENERAL                                                             
#CONTRACTION=SEGMENTED                                                          
RELATIVISTIC=OFF                                                                
#EXCITE=EOMEE                                                                   
#ESTATE_CONV=5                                                                  
#ESTATE_SYM=2/2/2/2/2/2/2/2                                                     
XFORM_TOL=18                                                                    
SAVE_INTS=ON                                                                    
SCF_EXPORDER=6                                                                  
SCF_EXPSTART=5                                                                  
#SCF_DAMPING=1000                                                               
SCF_EXTRAPOLATION=ON                                                            
SCF_CONV=13                                                                     
SCF_MAXCYC=99999                                                                
CC_CONV=9                                                                       
CC_MAXCYC=999                                                                   
T3_EXTRAPOL=ON                                                                  
REFERENCE=ROHF                                                                  
CHARGE=+1                                                                       
MULT=2                                                                          
ABCDTYPE=STANDARD                                                               
#OCCUPATION=3-2-2-0-1-0-0-0/3-1-1-0-1-0-0-0                                     
MEM=4                                                                           
MEM_UNIT=GB                                                                     
BASIS=SPECIAL)                                                                  
                                                                                
H:def2-TZVPP                                                                    
S:def2-TZVPP                                                                    
H:def2-TZVPP                                                                    
                                                                                
********************************************************************************
  @GTFLGS-W, Keyword #GEOM not known and is ignored.
  @GTFLGS-W, Keyword #COORD not known and is ignored.
  @GTFLGS-W, Keyword #CC_PROG not known and is ignored.
  @GTFLGS-W, Keyword #FROZEN_CORE not known and is ignored.
  @GTFLGS-W, Keyword #CONTRACTION not known and is ignored.
  @GTFLGS-W, Keyword #EXCITE not known and is ignored.
  @GTFLGS-W, Keyword #ESTATE_CONV not known and is ignored.
  @GTFLGS-W, Keyword #ESTATE_SYM not known and is ignored.
  @GTFLGS-W, Keyword #SCF_DAMPING not known and is ignored.
  @GTFLGS-W, Keyword #OCCUPATION not known and is ignored.
    -------------------------------------------------------------------
                    CFOUR Control Parameters 
    -------------------------------------------------------------------
        External           Internal           Value            Units
          Name               Name
    -------------------------------------------------------------------
       ABCDTYPE             IABCDT         STANDARD     [  0]   ***   
       ANHARMONIC           IANHAR         OFF          [  0]   ***   
       ANH_ALGORIT          IANALG         STANDARD     [  0]   ***   
       ANH_DERIVAT          IANDER         SECOND       [  1]   ***   
       ANH_STEPSIZ          ICUBST             50000          x 10-6  
       ANH_SYMMETR          IANHSM         ABELIAN      [  0]   ***   
       AO_LADDERS           IAOLAD         SINGLEPASS   [  1]   ***   
       BASIS                IBASIS         SPECIAL      [  0]   ***   
       BREIT                IBREIT         OFF          [  0]   ***   
       BRUCK_CONV           IBRTOL          10D-  4             ***   
       BRUECKNER            IBRKNR             OFF      [  0]   ***   
       BUFFERSIZE           IBUFFS            600               ***   
       CACHE_RECS           ICHREC             10               ***   
       CALCLEVEL            ICLLVL           CCSD(T)    [ 22]   ***   
       CCORBOPT             ICCORB             OFF      [  0] x 0.01  
       CC_CONV              ICCCNV          10D-  9             ***   
       CC_EXPORDER          ICCEOR              5               ***   
       CC_EXTRAPOL          ICCEXT             DIIS     [  1]   ***   
       CC_MAXCYC            ICCCYC            999              cycles 
       CC_PROGRAM           ICCPRO         VCC          [  0]   ***   
       CHARGE               ICHRGE              1               ***   
       CHOLESKY             ICHOLE         OFF          [  0]   ***   
       CIS_CONV             ICISTL              5               ***   
       COMM_SIZE            IPSIZE            ***               ***   
       CONSTANT             ICONST         OLD          [  1]   ***   
       CONTINUUM            ICONTU         NONE         [  0]   ***   
       CONTRACTION          ICNTYP          GENERAL     [  1]   ***   
       COORDINATES          ICOORD         INTERNAL     [  0]   ***   
       CPHF_CONVER          ICPHFT          10D- 16             ***   
       CPHF_MAXCYC          ICPHFC             64              cycles 
       CUBIC                ICUBIC         OFF          [  0]   ***   
       CURVILINEAR          ICURVY            OFF       [  0]   ***   
       DBOC                 IDBOC          OFF          [  0]   ***   
       DCT                  IDCT           OFF          [  0]   ***   
       DERIV_LEV            IDRLVL            ZERO      [  0]   ***   
       DIAG_MRCC            IEOMST          10D-  0             ***   
       DIFF_TYPE            IDIFTY         RELAXED      [  0]   ***   
       DIRECT               IDIRCT         OFF          [  0]   ***   
       DROPMO               IDRPMO A   1,  2,  3,  4,  5,
                                   B   1,  2,  3,  4,  5,
       ECP                  IECP           OFF          [  0]   ***   
       EIGENVECTOR          IVEC                1               ***   
       EL_ANHARM            IELANH         OFF          [  0]   ***   
       EOMFOLLOW            IEOMSR         ENERGY       [  0]   ***   
       EOM_MRCC             IMRCCE         NEW          [  1]   ***   
       EOM_NONIT            EOMNON         OFF          [  0]   ***   
       EOM_NSING            IEOMSI          10D-  0             ***   
       EOM_NSTATES          IMRCCD         DAVIDSON     [  0]   ***   
       EOM_NTRIP            IEOMTR          10D-  0             ***   
       EOM_ORDER            IEXORD         ENERGY       [  0]   ***   
       ESTATE_CONV          IEXTOL          10D-  5             ***   
       ESTATE_DIAG          IEXDIG         ITERATIVE    [  0]   ***   
       ESTATE_LOCK          IESLOC         ON           [  1]   ***   
       ESTATE_MAXC          IEXMXC             20               ***   
       ESTATE_PROP          IEXPRP         OFF          [  0]   ***   
       EVAL_HESS            IRECAL              0            # of cyc.
       EXCITATION           IEXCIT              0               ***   
       EXCITE               IEXCIT         NONE         [  0]   ***   
       FCGRADNEW            IFCGNW         OFF          [  0]   ***   
       FC_FIELD             IFINFC              0             x 10-6  
       FD_CALTYPE           IFDCAL         GRADONLY     [  0]   ***   
       FD_PROJECT           IFDPRJ         OFF          [  1]   ***   
       FD_STEPSIZE          IDISFD              0            10-4 bohr
       FD_USEGROUP          IFDGRP         FULL         [  0]   ***   
       FILE_RECSIZ          IFLREC              4096           words  
       FINITE_PERT          IFIPER              0             x 10-6  
       FIXGEOM              IFIXGM         OFF          [  0]   ***   
       FOCK                 IFOCK          AO           [  1]   ***   
       FREQ_ALGORI          IVIALG         STANDARD     [  0]   ***   
       FROZEN_CORE          IFROCO         OFF          [  0]   ***   
       FROZEN_VIRT          IFROVI         OFF          [  0]   ***   
       GAMMA_ABCD           IGABCD         STORE        [  0]   ***   
       GAMMA_ABCI           IGABCI         STORE        [  0]   ***   
       GENBAS_1             IGNBS1              0               ***   
       GENBAS_2             IGNBS2              0               ***   
       GENBAS_3             IGNBS3              0               ***   
       GENBAS_4             IGNBS4              0               ***   
       GEO_CONV             ICONTL              5              H/bohr 
       GEO_MAXCYC           IOPTCY             50               ***   
       GEO_MAXSTEP          IMXSTP            300            millibohr
       GEO_METHOD           INR            SINGLE_POINT [  5]   ***   
       GIAO                 IGIAO          OFF          [  1]   ***   
       GIMIC                IGIMIC         OFF          [  0]   ***   
       GRID                 IGRID          OFF          [  0]   ***   
       GRID_ALGO            IGALGO         SERIAL       [  0]   ***   
       GUESS                IGUESS            MOREAD    [  0]   ***   
       HBAR                 IHBAR              OFF      [  0]   ***   
       HESS_TYPE            IHESTP         SCF          [  0]   ***   
       HF2_FILE             IHF2Fl         USE          [  1]   ***   
       HFSTABILITY          ISTABL         OFF          [  0]   ***   
       INCORE               INCORE             OFF      [  0]   ***   
       INPUT_MRCC           IMRCC          OFF          [  0]   ***   
       INTEGRALS            INTTYP             VMOL     [  1]   ***   
       JODA_PRINT           IJPRNT              4               ***   
       LINDEP_TOL           ILINDP              8               ***   
       LINEQ_CONV           IZTACN          10D-  7           cycles  
       LINEQ_EXPOR          ILMAXD              5               ***   
       LINEQ_MAXCY          ILMAXC             50               ***   
       LINEQ_TYPE           ILTYPE         DIIS         [  1]   ***   
       LOCK_ORBOCC          ILOCOC             OFF      [  0]   ***   
       MEMORY_SIZE          IMEMSZ         500000000           words  
       MEM_UNIT             IMEMU          GB           [  3]   ***   
       MRCC                 IMRCCC         OFF          [  0]   ***   
       MULTIPLICTY          IMULTP              2               ***   
       NEGEVAL              IDIE             ABORT      [  0]   ***   
       NEWNORM              INEWNO         OFF          [  0]   ***   
       NON-HF               INONHF              ON      [  1]   ***   
       NTOP_TAMP            ITOPT2             15               ***   
       NUC_MODEL            INUCMO         POINT        [  0]   ***   
       OCCUPATION           IOCCU   ESTIMATED BY SCF 
       OPEN-SHELL           IOPEN          SPIN-ORBITAL [  0]   ***   
       ORBITALS             IORBTP         SEMICANONICAL[  1]   ***   
       PARALLEL             IPARAL         ON           [  1]   ***   
       PARA_INT             IPINTS         ON           [  1]   ***   
       PARA_PRINT           IPPRIN              0               ***   
       PERT_ORB             IPTORB         STANDARD     [  0]   ***   
       POINTS               IGRDFD              0               ***   
       PRINT                IPRNT               4               ***   
       PROPS                IPROPS             OFF      [  0]   ***   
       PROP_INTEGR          IINTYP         INTERNAL     [  0]   ***   
       PSI                  IPSI           OFF          [  0]   ***   
       QUARTIC              IQUART         OFF          [  0]   ***   
       RAMAN_INT            IRAMIN         OFF          [  0]   ***   
       RAMAN_ORB            IRAMRE         UNRELAXED    [  0]   ***   
       RDO                  IRDOFM             OFF      [  0]   ***   
       REFERENCE            IREFNC             ROHF     [  2]   ***   
       RELATIVIST           IRELAT         OFF          [  0]   ***   
       RELAX_DENS           IRDENS             OFF      [  0]   ***   
       RESET_FLAGS          IRESET             OFF      [  0]   ***   
       RESTART_CC           ICCRES         OFF          [  0]   ***   
       ROT_EVEC             ROTVEC              0               ***   
       SAVE_INTS            ISVINT              ON      [  1]   ***   
       SCALE_ON             ISTCRT              0               ***   
       SCF_CONV             ISCFCV          10D- 13             ***   
       SCF_DAMPING          IDAMP               0             x 10-3  
       SCF_EXPORDE          IRPPOR              6               ***   
       SCF_EXPSTAR          IRPPLS              5               ***   
       SCF_EXTRAPO          IRPP                ON      [  1]   ***   
       SCF_MAXCYC           ISCFCY            ***              cycles 
       SCF_NOSTOP           ISCFST         OFF          [  0]   ***   
       SCF_PRINT            ISCFPR              0               ***   
       SD_FIELD             IFINSD              0             x 10-6  
       SEQUENCE             ISEQUE         OFF          [  0]   ***   
       SOPERT               IPERSO         OFF          [  0]   ***   
       SPHERICAL            IDFGHI             ON       [  1]   ***   
       SPINORBIT            ISOCAL         OFF          [  0]   ***   
       SPINROTATIO          ISRCON         OFF          [  0]   ***   
       SPIN_FLIP            ISPFLP         OFF          [  0]   ***   
       SPIN_ORBIT           ISPORB         OFF          [  0]   ***   
       SPIN_SCAL            ISCSMP         OFF          [  0]   ***   
       SUBGROUP             ISUBGP         DEFAULT      [  0]   ***   
       SUBGRPAXIS           ISBXYZ         X            [  0]   ***   
       SYMMETRY             ISYM             ON         [  0]   ***   
       SYM_CHECK            ISYMCK         OVERRIDE     [  1]   ***   
       T3_EXTRAPOL          IT3EXT         ON           [  1]   ***   
       TAMP_SUM             IEVERY              5               ***   
       TESTSUITE            ITESTS         OFF          [  0]   ***   
       THERMOCH             ITHERM         OFF          [  0]   ***   
       TOL_CHOLESK          ITOLCH          10D-  4             ***   
       TRANGRAD             IRESRM         OFF          [  0]   ***   
       TRANS_INV            ITRAIN         USE          [  0]   ***   
       TREAT_PERT           ITREAT         SIMULTANEOUS [  0]   ***   
       UIJ_THRESHO          IUIJTH              1               ***   
       UNITS                IUNITS         BOHR         [  1]   ***   
       UNOS                 IUNOS          OFF          [  0]   ***   
       UPDATE_HESS          IHUPDT         ON           [  1]   ***   
       VIBPHASE             ISETPH         STANDARD     [  0]   ***   
       VIBRATION            IVIB              NO        [  0]   ***   
       VIB_ALGORIT          IGEALG         STANDARD     [  0]   ***   
       VNATORB              IVNORB         OFF          [  0]   ***   
       VTRAN                IVTRAN         FULL/PARTIAL [  0]   ***   
       XFIELD               IXEFLD              0             x 10-6  
       XFORM_TOL            IXFTOL          10D- 18             ***   
       YFIELD               IYEFLD              0             x 10-6  
       ZFIELD               IZEFLD              0             x 10-6  
    -------------------------------------------------------------------
   3 entries found in Z-matrix 
   Job Title : TITLE                                                                           
 Variable names read by FETCHZ
  1           
  2           
  3           
  4 R1        
  5           
  6           
  7 R1        
  8 A         
  9           
 Atomic symbols read by FETCHZ
  1 H    
  2 S    
  3 H    
 Connectivity matrix read by FETCHZ
  1   0
  2   0
  3   0
  4   1
  5   0
  6   0
  7   2
  8   1
  9   0
   There are  2 unique internal coordinates.
   Of these,  0 will be optimized.
   User supplied Z-matrix: 
--------------------------------------------------------------------------------
       SYMBOL    BOND      LENGTH    ANGLE     ANGLE     DIHED     ANGLE
                  TO      (ANGST)    WRT      (DEG)      WRT      (DEG)
--------------------------------------------------------------------------------
        H    
        S          1         R1   
        H          2         R1         1        A    
                  *Initial values for internal coordinates* 
                      Name             Value
                        R1              2.5239182120
                        A              92.1200000000
--------------------------------------------------------------------------------
  1  H          1     1.00783
  2  S         16    31.97207
  3  H          1     1.00783
    1.0078250350
   31.9720707000
    1.0078250350
 After translation to center of mass coordinates 
       -0.074789567187    0.000000000000   -2.451845970325
       -0.074789567187    0.000000000000    0.072072241725
        2.447401128419    0.000000000000    0.165438381797
  Inertia tensor (amu*bohr**2)
    6.25225    0.00000   -0.42053
    0.00000   12.47336    0.00000
   -0.42053    0.00000    6.22111
    Inertia tensor:
        6.252249249847    0.000000000000   -0.420532277296
        0.000000000000   12.473364077087    0.000000000000
       -0.420532277296    0.000000000000    6.221114827240
    Principal axis orientation for molecular system: 
       -1.817389837436    1.647493951535    0.000000000000
        0.000000000000   -0.103864755270    0.000000000000
        1.817389837436    1.647493951535    0.000000000000
    Diagonalized inertia tensor:
        5.815861727347    0.000000000000    0.000000000000
        0.000000000000    6.657502349739    0.000000000000
        0.000000000000    0.000000000000   12.473364077087
    Eigenvectors of inertia tensor: 
        0.693904698830    0.720066850328    0.000000000000
        0.000000000000    0.000000000000    1.000000000000
        0.720066850328   -0.693904698830    0.000000000000
 factor:   60.1997200000000     
   Rotational constants (in cm-1): 
          4.8262617549             9.0423880965            10.3509544797
   Rotational constants (in MHz): 
     144687.7077151376        271084.0133433316        310313.8520855426
  @SYMMETRY-I, Handedness of inertial frame: 1.00000
  @SYMMETRY-I, The symmetry group is 1-fold degenerate.
  @SYMMETRY-I, The molecule belongs to an Abelian group.
   Principal axis orientation for molecule:
       -1.817389837436    1.647493951535    0.000000000000
        0.000000000000   -0.103864755270    0.000000000000
        1.817389837436    1.647493951535    0.000000000000
   Reflection in plane  3 is a valid symmetry operation.
   Rotation about  2 is a valid symmetry operation 
   Reflection in plane  1 is a valid symmetry operation.
  Symmetry bits:    5   2   0
********************************************************************************
   The full molecular point group is C2v .
   The largest Abelian subgroup of the full molecular point group is C2v .
   The computational point group is C2v .
********************************************************************************
--------------------------------------------------------------------------------
   Analysis of internal coordinates specified by Z-matrix 
--------------------------------------------------------------------------------
   *The nuclear repulsion energy is   12.953819112197429 a.u.
   *There are   2 degrees of freedom within the tot. symm. molecular subspace.
   *Z-matrix requests optimization of   0 coordinates.
   *The optimization is constrained.
   *The following   2 parameters can have non-zero 
    derivatives within the totally symmetric subspace:
             A    [ 3]  R1   [ 1]
   *The following   0 parameters are to be optimized:

   *The following coordinates must be varied in an  unconstrained optimization.
             A    [ 3]  R1   [ 1]
--------------------------------------------------------------------------------
 ----------------------------------------------------------------
 Z-matrix   Atomic            Coordinates (in bohr)
  Symbol    Number           X              Y              Z
 ----------------------------------------------------------------
     H         1         0.00000000    -1.81738984     1.64749395
     S        16         0.00000000     0.00000000    -0.10386476
     H         1         0.00000000     1.81738984     1.64749395
 ----------------------------------------------------------------
   Interatomic distance matrix (Angstroms) 
 
                 H             S             H    
                [ 1]        [ 2]        [ 3]
  H    [ 1]     0.00000
  S    [ 2]     1.33560     0.00000
  H    [ 3]     1.92344     1.33560     0.00000
  Inertia tensor (amu*bohr**2)
   12.47336    0.00000    0.00000
    0.00000    5.81586    0.00000
    0.00000    0.00000    6.65750
   Rotational constants (in cm-1): 
          4.8262617549            10.3509544797             9.0423880965
   Rotational constants (in MHz): 
     144687.7077151376        310313.8520855427        271084.0133433316
  @GTFLGS-W, Keyword #GEOM not known and is ignored.
  @GTFLGS-W, Keyword #COORD not known and is ignored.
  @GTFLGS-W, Keyword #CC_PROG not known and is ignored.
  @GTFLGS-W, Keyword #FROZEN_CORE not known and is ignored.
  @GTFLGS-W, Keyword #CONTRACTION not known and is ignored.
  @GTFLGS-W, Keyword #EXCITE not known and is ignored.
  @GTFLGS-W, Keyword #ESTATE_CONV not known and is ignored.
  @GTFLGS-W, Keyword #ESTATE_SYM not known and is ignored.
  @GTFLGS-W, Keyword #SCF_DAMPING not known and is ignored.
  @GTFLGS-W, Keyword #OCCUPATION not known and is ignored.
  There are   70 basis functions.
 @GEOPT-W, Archive file not created for single-point calculation.
  @CHECKOUT-I, Total execution time (CPU/WALL):        0.48/       0.64 seconds.
--executable xjoda finished with status     0 in        0.74 seconds (walltime).
 --invoking executable--
/project1/nike/cfour_v2.00beta_May2019xnmol_noLABBASIS/bin/xvmol
Running with 1 threads/proc

********************************************************************************
                   INPUT FROM MOL FILE                                          
********************************************************************************
INTGRL        1    0    1    0    0    0    0    0    0
         *** CFOUR Program System (Release V0.1) *** 
TITLE
    2    2 X  Y       0.10E-08              0    0
   9999.00      3.00
          1.00000000    1    3    1    1    1
H #1   0.000000000000000  -1.817389837436352   1.647493951534586
    5    3
   34.0613410000000       6.025197800000000E-003  0.000000000000000E+000
  0.000000000000000E+000
   5.12357460000000       4.502109400000000E-002  0.000000000000000E+000
  0.000000000000000E+000
   1.16466260000000       0.201897260000000       0.000000000000000E+000
  0.000000000000000E+000
  0.327230410000000       0.000000000000000E+000   1.00000000000000     
  0.000000000000000E+000
  0.103072410000000       0.000000000000000E+000  0.000000000000000E+000
   1.00000000000000     
    2    2
   1.40700000000000        1.00000000000000       0.000000000000000E+000
  0.388000000000000       0.000000000000000E+000   1.00000000000000     
    1    1
   1.05700000000000        1.00000000000000     
         16.00000000    1    4    1    1    1    1
S #2   0.000000000000000   0.000000000000000  -0.103864755270145
   14    5
   60700.9281040000       5.469594422500000E-004  0.000000000000000E+000
  0.000000000000000E+000  0.000000000000000E+000  0.000000000000000E+000
   9102.61068540000       4.229722455700000E-003  0.000000000000000E+000
  0.000000000000000E+000  0.000000000000000E+000  0.000000000000000E+000
   2071.41660090000       2.174782415900000E-002  0.000000000000000E+000
  0.000000000000000E+000  0.000000000000000E+000  0.000000000000000E+000
   586.024768210000       8.510005358900000E-002  0.000000000000000E+000
  0.000000000000000E+000  0.000000000000000E+000  0.000000000000000E+000
   190.553950210000       0.247991284590000       0.000000000000000E+000
  0.000000000000000E+000  0.000000000000000E+000  0.000000000000000E+000
   67.6303842600000       0.467036404060000       0.000000000000000E+000
  0.000000000000000E+000  0.000000000000000E+000  0.000000000000000E+000
   25.1273069050000       0.364345875500000       0.000000000000000E+000
  0.000000000000000E+000  0.000000000000000E+000  0.000000000000000E+000
   112.574630100000       0.000000000000000E+000  2.167004024000000E-002
  0.000000000000000E+000  0.000000000000000E+000  0.000000000000000E+000
   34.7955542170000       0.000000000000000E+000  9.360230176000001E-002
  0.000000000000000E+000  0.000000000000000E+000  0.000000000000000E+000
   6.51155562150000       0.000000000000000E+000 -0.260680014220000     
  0.000000000000000E+000  0.000000000000000E+000  0.000000000000000E+000
   3.23990322610000       0.000000000000000E+000  0.000000000000000E+000
   1.28420894350000       0.000000000000000E+000  0.000000000000000E+000
   1.54771608810000       0.000000000000000E+000  0.000000000000000E+000
  0.660364165840000       0.000000000000000E+000  0.000000000000000E+000
  0.405410301120000       0.000000000000000E+000  0.000000000000000E+000
  0.000000000000000E+000   1.00000000000000       0.000000000000000E+000
  0.145506510590000       0.000000000000000E+000  0.000000000000000E+000
  0.000000000000000E+000  0.000000000000000E+000   1.00000000000000     
    9    5
   564.367160270000       2.479679631700000E-003  0.000000000000000E+000
  0.000000000000000E+000  0.000000000000000E+000  0.000000000000000E+000
   133.426243790000       1.967793025000000E-002  0.000000000000000E+000
  0.000000000000000E+000  0.000000000000000E+000  0.000000000000000E+000
   42.4682711890000       8.998000825800000E-002  0.000000000000000E+000
  0.000000000000000E+000  0.000000000000000E+000  0.000000000000000E+000
   15.6165275800000       0.257058805750000       0.000000000000000E+000
  0.000000000000000E+000  0.000000000000000E+000  0.000000000000000E+000
   6.10939884690000       0.435151672920000       0.000000000000000E+000
  0.000000000000000E+000  0.000000000000000E+000  0.000000000000000E+000
   2.44041601980000       0.000000000000000E+000  0.348832405950000     
  0.000000000000000E+000  0.000000000000000E+000  0.000000000000000E+000
  0.838822012960000       0.000000000000000E+000  0.000000000000000E+000
   1.00000000000000       0.000000000000000E+000  0.000000000000000E+000
  0.312887469000000       0.000000000000000E+000  0.000000000000000E+000
  0.000000000000000E+000   1.00000000000000       0.000000000000000E+000
  0.107701090040000       0.000000000000000E+000  0.000000000000000E+000
  0.000000000000000E+000  0.000000000000000E+000   1.00000000000000     
    3    3
  0.273000000000000        1.00000000000000       0.000000000000000E+000
  0.000000000000000E+000
   3.75600000000000       0.000000000000000E+000   1.00000000000000     
  0.000000000000000E+000
  0.812000000000000       0.000000000000000E+000  0.000000000000000E+000
   1.00000000000000     
    1    1
  0.557000000000000        1.00000000000000     
FINISH
                                                                                
********************************************************************************

ONE- AND TWO-ELECTRON INTEGRALS OVER SYMMETRY-ADAPTED AOS ARE CALCULATED.


    BASIS FUNCTION NOT NORMALIZED:
    CENTER (AS ORDERED IN MOL FILE): ?
    ANGULAR MOMENTUM TYPE:           S
    OFFSET WITHIN ANGULAR MOMENTUM:  1
    <CHI|CHI>:                       0.0560960211

    BASIS FUNCTION NOT NORMALIZED:
    CENTER (AS ORDERED IN MOL FILE): ?
    ANGULAR MOMENTUM TYPE:           S
    OFFSET WITHIN ANGULAR MOMENTUM:  1
    <CHI|CHI>:                       1.0903803538

    BASIS FUNCTION NOT NORMALIZED:
    CENTER (AS ORDERED IN MOL FILE): ?
    ANGULAR MOMENTUM TYPE:           S
    OFFSET WITHIN ANGULAR MOMENTUM:  2
    <CHI|CHI>:                       0.0465339884

    BASIS FUNCTION NOT NORMALIZED:
    CENTER (AS ORDERED IN MOL FILE): ?
    ANGULAR MOMENTUM TYPE:           S
    OFFSET WITHIN ANGULAR MOMENTUM:  3
    <CHI|CHI>:                       3.6198277538

    BASIS FUNCTION NOT NORMALIZED:
    CENTER (AS ORDERED IN MOL FILE): ?
    ANGULAR MOMENTUM TYPE:           P
    OFFSET WITHIN ANGULAR MOMENTUM:  1
    <CHI|CHI>:                       0.5052028598

    BASIS FUNCTION NOT NORMALIZED:
    CENTER (AS ORDERED IN MOL FILE): ?
    ANGULAR MOMENTUM TYPE:           P
    OFFSET WITHIN ANGULAR MOMENTUM:  2
    <CHI|CHI>:                       0.1216840474
CARTESIAN GAUSSIANS ARE USED.

2 TYPES OF ATOMS
2 SYMMETRY OPERATIONS

REFLECTION IN THE YZ-PLANE
REFLECTION IN THE XZ-PLANE

INTEGRALS LESS THAN 1e-14 ARE NEGLECTED.

ATOMIC TYPE NUMBER 1:
---------------------

    NUCLEAR CHARGE:                       1
    NUMBER OF SYMMETRY INDEPENDENT ATOMS: 1
    HIGHEST ORBITAL TYPE:                 D

    1 GROUPS OF CGTOS OF S TYPE
    1 GROUPS OF CGTOS OF P TYPE
    1 GROUPS OF CGTOS OF D TYPE

    NUCLEAR COORDINATES (IN A.U.) ARE:

    H #1   0.000000000000000  -1.817389837436352   1.647493951534586

ATOMIC TYPE NUMBER 2:
---------------------

    NUCLEAR CHARGE:                       16
    NUMBER OF SYMMETRY INDEPENDENT ATOMS: 1
    HIGHEST ORBITAL TYPE:                 F

    1 GROUPS OF CGTOS OF S TYPE
    1 GROUPS OF CGTOS OF P TYPE
    1 GROUPS OF CGTOS OF D TYPE
    1 GROUPS OF CGTOS OF F TYPE

    NUCLEAR COORDINATES (IN A.U.) ARE:

    S #2   0.000000000000000   0.000000000000000  -0.103864755270145

INTERNUCLEAR DISTANCES (A):

    FOR ATOM H #1 (COORDINATES:   0.00000  -1.81739   1.64749)

    H #1 3 DISTANCE IS   1.92344
    S #2 1 DISTANCE IS   1.33560

    FOR ATOM S #2 (COORDINATES:   0.00000   0.00000  -0.10386)


GROUP MULTIPLICATION TABLE:

    1 2 3 4
    2 1 4 3
    3 4 1 2
    4 3 2 1

GAUSSIAN BASIS INFORMATION:

ATOM                EXPONENT       COEFFICIENTS

H #1  1  S   
                  1      34.061341   0.2556299   0.0000000   0.0000000
                  2       5.123575   0.4613600   0.0000000   0.0000000
                  3       1.164663   0.6811215   0.0000000   0.0000000
                  4       0.327230   0.0000000   0.3083545   0.0000000
                  5       0.103072   0.0000000   0.0000000   0.1296483

H #1  3  S   
                  6      34.061341   0.2556299   0.0000000   0.0000000
                  7       5.123575   0.4613600   0.0000000   0.0000000
                  8       1.164663   0.6811215   0.0000000   0.0000000
                  9       0.327230   0.0000000   0.3083545   0.0000000
                 10       0.103072   0.0000000   0.0000000   0.1296483

H #1  1  X   
                 11       1.407000   2.1842770   0.0000000
                 12       0.388000   0.0000000   0.4364955

H #1  3  X   
                 13       1.407000   2.1842770   0.0000000
                 14       0.388000   0.0000000   0.4364955

H #1  1  Y   
                 15       1.407000   2.1842770   0.0000000
                 16       0.388000   0.0000000   0.4364955

H #1  3  Y   
                 17       1.407000   2.1842770   0.0000000
                 18       0.388000   0.0000000   0.4364955

H #1  1  Z   
                 19       1.407000   2.1842770   0.0000000
                 20       0.388000   0.0000000   0.4364955

H #1  3  Z   
                 21       1.407000   2.1842770   0.0000000
                 22       0.388000   0.0000000   0.4364955

H #1  1  XX  
                 23       1.057000   3.1412414

H #1  3  XX  
                 24       1.057000   3.1412414

H #1  1  XY  
                 25       1.057000   3.1412414

H #1  3  XY  
                 26       1.057000   3.1412414

H #1  1  XZ  
                 27       1.057000   3.1412414

H #1  3  XZ  
                 28       1.057000   3.1412414

H #1  1  YY  
                 29       1.057000   3.1412414

H #1  3  YY  
                 30       1.057000   3.1412414

H #1  1  YZ  
                 31       1.057000   3.1412414

H #1  3  YZ  
                 32       1.057000   3.1412414

H #1  1  ZZ  
                 33       1.057000   3.1412414

H #1  3  ZZ  
                 34       1.057000   3.1412414

S #2  1  S   
                 35   60700.928104   1.4436859   0.0000000   0.0000000   0.0000000   0.0000000
                 36    9102.610685   2.6903416   0.0000000   0.0000000   0.0000000   0.0000000
                 37    2071.416601   4.5576134   0.0000000   0.0000000   0.0000000   0.0000000
                 38     586.024768   6.9181169   0.0000000   0.0000000   0.0000000   0.0000000
                 39     190.553950   8.6810242   0.0000000   0.0000000   0.0000000   0.0000000
                 40      67.630384   7.5175826   0.0000000   0.0000000   0.0000000   0.0000000
                 41      25.127307   2.7909008   0.0000000   0.0000000   0.0000000   0.0000000
                 42     112.574630   0.0000000   2.4743724   0.0000000   0.0000000   0.0000000
                 43      34.795554   0.0000000   4.4305159   0.0000000   0.0000000   0.0000000
                 44       6.511556   0.0000000  -3.5107205   0.0000000   0.0000000   0.0000000
                 45       3.239903   0.0000000   0.0000000   1.1617184   0.0000000   0.0000000
                 46       1.547716   0.0000000   0.0000000   0.3432560   0.0000000   0.0000000
                 47       0.405410   0.0000000   0.0000000   0.0000000   0.3621022   0.0000000
                 48       0.145507   0.0000000   0.0000000   0.0000000   0.0000000   0.1679082

S #2  1  X   
                 49     564.367160  13.6790183   0.0000000   0.0000000   0.0000000   0.0000000
                 50     133.426244  17.8952669   0.0000000   0.0000000   0.0000000   0.0000000
                 51      42.468271  19.5629319   0.0000000   0.0000000   0.0000000   0.0000000
                 52      15.616528  16.0036949   0.0000000   0.0000000   0.0000000   0.0000000
                 53       6.109399   8.3819669   0.0000000   0.0000000   0.0000000   0.0000000
                 54       2.440416   0.0000000   4.3478036   0.0000000   0.0000000   0.0000000
                 55       0.838822   0.0000000   0.0000000   1.1442670   0.0000000   0.0000000
                 56       0.312887   0.0000000   0.0000000   0.0000000   0.3335610   0.0000000
                 57       0.107701   0.0000000   0.0000000   0.0000000   0.0000000   0.0879458

S #2  1  Y   
                 58     564.367160  13.6790183   0.0000000   0.0000000   0.0000000   0.0000000
                 59     133.426244  17.8952669   0.0000000   0.0000000   0.0000000   0.0000000
                 60      42.468271  19.5629319   0.0000000   0.0000000   0.0000000   0.0000000
                 61      15.616528  16.0036949   0.0000000   0.0000000   0.0000000   0.0000000
                 62       6.109399   8.3819669   0.0000000   0.0000000   0.0000000   0.0000000
                 63       2.440416   0.0000000   4.3478036   0.0000000   0.0000000   0.0000000
                 64       0.838822   0.0000000   0.0000000   1.1442670   0.0000000   0.0000000
                 65       0.312887   0.0000000   0.0000000   0.0000000   0.3335610   0.0000000
                 66       0.107701   0.0000000   0.0000000   0.0000000   0.0000000   0.0879458

S #2  1  Z   
                 67     564.367160  13.6790183   0.0000000   0.0000000   0.0000000   0.0000000
                 68     133.426244  17.8952669   0.0000000   0.0000000   0.0000000   0.0000000
                 69      42.468271  19.5629319   0.0000000   0.0000000   0.0000000   0.0000000
                 70      15.616528  16.0036949   0.0000000   0.0000000   0.0000000   0.0000000
                 71       6.109399   8.3819669   0.0000000   0.0000000   0.0000000   0.0000000
                 72       2.440416   0.0000000   4.3478036   0.0000000   0.0000000   0.0000000
                 73       0.838822   0.0000000   0.0000000   1.1442670   0.0000000   0.0000000
                 74       0.312887   0.0000000   0.0000000   0.0000000   0.3335610   0.0000000
                 75       0.107701   0.0000000   0.0000000   0.0000000   0.0000000   0.0879458

S #2  1  XX  
                 76       0.273000   0.2939373   0.0000000   0.0000000
                 77       3.756000   0.0000000  28.8894887   0.0000000
                 78       0.812000   0.0000000   0.0000000   1.9801274

S #2  1  XY  
                 79       0.273000   0.2939373   0.0000000   0.0000000
                 80       3.756000   0.0000000  28.8894887   0.0000000
                 81       0.812000   0.0000000   0.0000000   1.9801274

S #2  1  XZ  
                 82       0.273000   0.2939373   0.0000000   0.0000000
                 83       3.756000   0.0000000  28.8894887   0.0000000
                 84       0.812000   0.0000000   0.0000000   1.9801274

S #2  1  YY  
                 85       0.273000   0.2939373   0.0000000   0.0000000
                 86       3.756000   0.0000000  28.8894887   0.0000000
                 87       0.812000   0.0000000   0.0000000   1.9801274

S #2  1  YZ  
                 88       0.273000   0.2939373   0.0000000   0.0000000
                 89       3.756000   0.0000000  28.8894887   0.0000000
                 90       0.812000   0.0000000   0.0000000   1.9801274

S #2  1  ZZ  
                 91       0.273000   0.2939373   0.0000000   0.0000000
                 92       3.756000   0.0000000  28.8894887   0.0000000
                 93       0.812000   0.0000000   0.0000000   1.9801274

S #2  1  F300
                 94       0.557000   1.5281791

S #2  1  F210
                 95       0.557000   1.5281791

S #2  1  F201
                 96       0.557000   1.5281791

S #2  1  F120
                 97       0.557000   1.5281791

S #2  1  F111
                 98       0.557000   1.5281791

S #2  1  F102
                 99       0.557000   1.5281791

S #2  1  F030
                100       0.557000   1.5281791

S #2  1  F021
                101       0.557000   1.5281791

S #2  1  F012
                102       0.557000   1.5281791

S #2  1  F003
                103       0.557000   1.5281791

SYMMETRY TRANSFORMATION INTO 70 SYMMETRY-ADAPTED BASIS FUNCTIONS

    IRREDUCIBLE REPRESENTATION NUMBER 1

    1    1 H #1 S      1   1.0   2   1.0
    2    2 H #1 S      3   1.0   4   1.0
    3    3 H #1 S      5   1.0   6   1.0
    4    4 H #1 Y     11   1.0  12  -1.0
    5    5 H #1 Y     13   1.0  14  -1.0
    6    6 H #1 Z     15   1.0  16   1.0
    7    7 H #1 Z     17   1.0  18   1.0
    8    8 H #1 XX    19  -1.0  20  -1.0  25  -1.0  26  -1.0  29   2.0  30   2.0
    9    9 H #1 YY    19   1.0  20   1.0  25  -1.0  26  -1.0
   10   10 H #1 YZ    27   1.0  28  -1.0
   11   11 H #1 ZZ    31   1.0
   12   12 S #2 S     32   1.0
   13   13 S #2 S     33   1.0
   14   14 S #2 S     34   1.0
   15   15 S #2 S     35   1.0
   16   16 S #2 S     46   1.0
   17   17 S #2 Z     47   1.0
   18   18 S #2 Z     48   1.0
   19   19 S #2 Z     49   1.0
   20   20 S #2 Z     50   1.0
   21   21 S #2 Z     51  -1.0  60  -1.0  66   2.0
   22   22 S #2 XX    52  -1.0  61  -1.0  67   2.0
   23   23 S #2 XX    53  -1.0  62  -1.0  68   2.0
   24   24 S #2 XX    51   1.0  60  -1.0
   25   25 S #2 YY    52   1.0  61  -1.0
   26   26 S #2 YY    53   1.0  62  -1.0
   27   27 S #2 YY    71  -3.0  76  -3.0  78   2.0
   28   28 S #2 ZZ    71   1.0  76  -1.0
   29   29 S #2 ZZ     7   1.0   8   1.0
   30   30 S #2 ZZ     9   1.0  10   1.0
   31   31 S #2 F201  21   1.0  22  -1.0
   32   32 S #2 F021  23   1.0  24   1.0
   33   33 S #2 F003  36   1.0

    IRREDUCIBLE REPRESENTATION NUMBER 2

   34    1 H #1 X     37   1.0
   35    2 H #1 X     38   1.0
   36    3 H #1 XY    39   1.0
   37    4 H #1 XZ    40   1.0
   38    5 S #2 X     57   1.0
   39    6 S #2 X     58   1.0
   40    7 S #2 X     59   1.0
   41    8 S #2 X     69  -1.0  72  -1.0  74   4.0
   42    9 S #2 X     69   1.0  72  -3.0
   43   10 S #2 XZ     1   1.0   2  -1.0
   44   11 S #2 XZ     3   1.0   4  -1.0
   45   12 S #2 XZ     5   1.0   6  -1.0
   46   13 S #2 F300  11   1.0  12   1.0
   47   14 S #2 F120  13   1.0  14   1.0
   48   15 S #2 F102  15   1.0  16  -1.0

    IRREDUCIBLE REPRESENTATION NUMBER 3

   49    1 H #1 S     17   1.0  18  -1.0
   50    2 H #1 S     19  -1.0  20   1.0  25  -1.0  26   1.0  29   2.0  30  -2.0
   51    3 H #1 S     19   1.0  20  -1.0  25  -1.0  26   1.0
   52    4 H #1 Y     27   1.0  28   1.0
   53    5 H #1 Y     41   1.0
   54    6 H #1 Z     42   1.0
   55    7 H #1 Z     43   1.0
   56    8 H #1 XX    44   1.0
   57    9 H #1 YY    45   1.0
   58   10 H #1 YZ    63   1.0
   59   11 H #1 ZZ    64   1.0
   60   12 S #2 Y     65   1.0
   61   13 S #2 Y     70  -1.0  75  -1.0  77   4.0
   62   14 S #2 Y     70   3.0  75  -1.0
   63   15 S #2 Y      7   1.0   8  -1.0
   64   16 S #2 Y      9   1.0  10  -1.0
   65   17 S #2 YZ    21   1.0  22   1.0
   66   18 S #2 YZ    23   1.0  24  -1.0
   67   19 S #2 YZ    54   1.0
   68   20 S #2 F210  55   1.0
   69   21 S #2 F030  56   1.0
   70   22 S #2 F012  73   1.0

    IRREDUCIBLE REPRESENTATION NUMBER 4

   71    1 H #1 X   
   72    2 H #1 X   
   73    3 H #1 XY  
   74    4 H #1 XZ  
   75    5 S #2 XY  
   76    6 S #2 XY  
   77    7 S #2 XY  
   78    8 S #2 F111

NUCLEAR REPULSION ENERGY:   12.9538191122 A.U.

One-electron integrals took 0.015023 seconds

  @TWOEL-I,      97095 INTEGRALS OF SYMMETRY TYPE  I I I I
  @TWOEL-I,     290612 INTEGRALS OF SYMMETRY TYPE  I J I J
  @TWOEL-I,     159929 INTEGRALS OF SYMMETRY TYPE  I I J J
  @TWOEL-I,     174392 INTEGRALS OF SYMMETRY TYPE  I J K L
  @TWOEL-I, TOTAL NUMBER OF 2-E INTEGRALS     722028

Two-electron integrals took 1.973063 seconds

Nuclear repulsion energy: 12.953819112197
--executable xvmol finished with status     0 in        2.63 seconds (walltime).
 --invoking executable--
/project1/nike/cfour_v2.00beta_May2019xnmol_noLABBASIS/bin/xvmol2ja
--executable xvmol2ja finished with status     0 in        0.05 seconds (walltime).
 --invoking executable--
/project1/nike/cfour_v2.00beta_May2019xnmol_noLABBASIS/bin/xvscf
  There are   70 functions in the AO basis.

  There are 4 irreducible representations.

       Irrep        # of functions
         1                 28
         2                 14
         3                 20
         4                  8


  Parameters for SCF calculation: 
        SCF reference function: ROHF  
  Maximum number of iterations: ****
     Full symmetry point group: C2v 
     Computational point group: C2v 
        Initial density matrix: CORE                   
     SCF convergence tolerance: 10**(-13)
  DIIS convergence acceleration:  ON
          Latest start for DIIS:   5
                     DIIS order:   6

  Memory information:     249797 words required.
  Fock matrices are constructed from AO integral file.
 @GETMEM-I,  Allocated       1 MB of main memory.
  Initialization and symmetry analysis required      0.003 seconds.

  @INITGES-I, Occupancies from core Hamiltonian:

          Alpha population by irrep:   4    2    3    0
           Beta population by irrep:   4    2    2    0


 total no. of electrons in initial guess :  0.000000000000000E+000
 total no. of electrons in initial guess :  0.000000000000000E+000
  --------------------------------------------------------------------
  Iteration         Total Energy            Largest Density Difference
  --------------------------------------------------------------------
       0            12.953819112197429              0.0000000000D+00
   current occupation vector 
     4  2  3  0
     4  2  2  0
  processed                  97095  ao basis integrals from 
                   162  buffers.
  processed                 159929  ao basis integrals from 
                   267  buffers.
  processed                 290612  ao basis integrals from 
                   485  buffers.
       1          -351.914239544434963              0.1599327701D+01
   current occupation vector 
     4  2  3  0
     4  2  2  0
  processed                  97095  ao basis integrals from 
                   162  buffers.
  processed                 159929  ao basis integrals from 
                   267  buffers.
  processed                 290612  ao basis integrals from 
                   485  buffers.
       2          -383.191513330821294              0.4883560380D+01
   current occupation vector 
     5  2  2  0
     4  2  2  0
  processed                  97095  ao basis integrals from 
                   162  buffers.
  processed                 159929  ao basis integrals from 
                   267  buffers.
  processed                 290612  ao basis integrals from 
                   485  buffers.
       3          -394.559289671895499              0.4863870689D+01
   current occupation vector 
     5  2  2  0
     5  1  2  0
  processed                  97095  ao basis integrals from 
                   162  buffers.
  processed                 159929  ao basis integrals from 
                   267  buffers.
  processed                 290612  ao basis integrals from 
                   485  buffers.
       4          -397.197423714407478              0.4197334280D+01
   current occupation vector 
     6  1  2  0
     5  1  2  0
 
 sum over diagonal and offdiagdiagonal of C(T)*S*C for irrep
                     1
  4.349853810481363E-013 -1.718896558568343E-014
 reorthoganalization of MOs is carried out
 sum over diagonal and offdiagdiagonal of C(T)*S*C for irrep
                     1
 -2.542410726391608E-014 -1.727816327238217E-014
 
 sum over diagonal and offdiagdiagonal of C(T)*S*C for irrep
                     2
  4.540812170716890E-014  3.476177862211279E-014
 reorthoganalization of MOs is carried out
 sum over diagonal and offdiagdiagonal of C(T)*S*C for irrep
                     2
 -1.332267629550188E-015  5.977055169773264E-016
 
 sum over diagonal and offdiagdiagonal of C(T)*S*C for irrep
                     3
  1.043609643147647E-014 -8.494102735992006E-014
 reorthoganalization of MOs is carried out
 sum over diagonal and offdiagdiagonal of C(T)*S*C for irrep
                     3
  1.409983241273949E-014  2.859585125166737E-014
 
 sum over diagonal and offdiagdiagonal of C(T)*S*C for irrep
                     4
  1.065814103640150E-014  8.604851857094142E-015
 reorthoganalization of MOs is carried out
 sum over diagonal and offdiagdiagonal of C(T)*S*C for irrep
                     4
 -1.110223024625157E-015  7.571593634188301E-016
  processed                  97095  ao basis integrals from 
                   162  buffers.
  processed                 159929  ao basis integrals from 
                   267  buffers.
  processed                 290612  ao basis integrals from 
                   485  buffers.
       5          -398.204247338666562              0.4128106050D+01
   current occupation vector 
     5  2  2  0
     5  1  2  0
  processed                  97095  ao basis integrals from 
                   162  buffers.
  processed                 159929  ao basis integrals from 
                   267  buffers.
  processed                 290612  ao basis integrals from 
                   485  buffers.
       6          -398.361761184067973              0.2278004606D+00
   current occupation vector 
     5  2  2  0
     5  1  2  0
  processed                  97095  ao basis integrals from 
                   162  buffers.
  processed                 159929  ao basis integrals from 
                   267  buffers.
  processed                 290612  ao basis integrals from 
                   485  buffers.
       7          -398.363371947602957              0.1239205620D-01
   current occupation vector 
     5  2  2  0
     5  1  2  0
  processed                  97095  ao basis integrals from 
                   162  buffers.
  processed                 159929  ao basis integrals from 
                   267  buffers.
  processed                 290612  ao basis integrals from 
                   485  buffers.
       8          -398.363494299352055              0.4127512577D-02
   current occupation vector 
     5  2  2  0
     5  1  2  0
  processed                  97095  ao basis integrals from 
                   162  buffers.
  processed                 159929  ao basis integrals from 
                   267  buffers.
  processed                 290612  ao basis integrals from 
                   485  buffers.
       9          -398.363506221195166              0.1205143211D-02
   current occupation vector 
     5  2  2  0
     5  1  2  0
 
 sum over diagonal and offdiagdiagonal of C(T)*S*C for irrep
                     1
  9.925393840148899E-014  3.544891829666685E-015
 reorthoganalization of MOs is carried out
 sum over diagonal and offdiagdiagonal of C(T)*S*C for irrep
                     1
 -7.105427357601002E-015  4.473118121485576E-015
 
 sum over diagonal and offdiagdiagonal of C(T)*S*C for irrep
                     2
  1.931788062847772E-014 -5.770309998196340E-015
 reorthoganalization of MOs is carried out
 sum over diagonal and offdiagdiagonal of C(T)*S*C for irrep
                     2
  1.887379141862766E-015 -6.937357267026901E-016
 
 sum over diagonal and offdiagdiagonal of C(T)*S*C for irrep
                     3
  9.048317650695026E-014  2.442307530284359E-014
 reorthoganalization of MOs is carried out
 sum over diagonal and offdiagdiagonal of C(T)*S*C for irrep
                     3
 -5.995204332975845E-015 -3.818167288272005E-014
 
 sum over diagonal and offdiagdiagonal of C(T)*S*C for irrep
                     4
  8.659739592076221E-015 -8.559511877493514E-015
 reorthoganalization of MOs is carried out
 sum over diagonal and offdiagdiagonal of C(T)*S*C for irrep
                     4
  0.000000000000000E+000  1.074600206995430E-015
  processed                  97095  ao basis integrals from 
                   162  buffers.
  processed                 159929  ao basis integrals from 
                   267  buffers.
  processed                 290612  ao basis integrals from 
                   485  buffers.
      10          -398.363506749523708              0.1299757760D-03
   current occupation vector 
     5  2  2  0
     5  1  2  0
  processed                  97095  ao basis integrals from 
                   162  buffers.
  processed                 159929  ao basis integrals from 
                   267  buffers.
  processed                 290612  ao basis integrals from 
                   485  buffers.
      11          -398.363506779330066              0.8363142493D-04
   current occupation vector 
     5  2  2  0
     5  1  2  0
  processed                  97095  ao basis integrals from 
                   162  buffers.
  processed                 159929  ao basis integrals from 
                   267  buffers.
  processed                 290612  ao basis integrals from 
                   485  buffers.
      12          -398.363506780626892              0.6344280959D-05
   current occupation vector 
     5  2  2  0
     5  1  2  0
  processed                  97095  ao basis integrals from 
                   162  buffers.
  processed                 159929  ao basis integrals from 
                   267  buffers.
  processed                 290612  ao basis integrals from 
                   485  buffers.
      13          -398.363506780664068              0.2924917864D-05
   current occupation vector 
     5  2  2  0
     5  1  2  0
  processed                  97095  ao basis integrals from 
                   162  buffers.
  processed                 159929  ao basis integrals from 
                   267  buffers.
  processed                 290612  ao basis integrals from 
                   485  buffers.
      14          -398.363506780665489              0.5187267634D-06
   current occupation vector 
     5  2  2  0
     5  1  2  0
 
 sum over diagonal and offdiagdiagonal of C(T)*S*C for irrep
                     1
  8.670841822322473E-014 -1.125941428026498E-013
 reorthoganalization of MOs is carried out
 sum over diagonal and offdiagdiagonal of C(T)*S*C for irrep
                     1
  1.132427485117660E-014  1.922676712478888E-014
 
 sum over diagonal and offdiagdiagonal of C(T)*S*C for irrep
                     2
  2.364775042451583E-014 -2.120905980498733E-014
 reorthoganalization of MOs is carried out
 sum over diagonal and offdiagdiagonal of C(T)*S*C for irrep
                     2
 -2.331468351712829E-015  4.732709844698203E-015
 
 sum over diagonal and offdiagdiagonal of C(T)*S*C for irrep
                     3
 -3.774758283725532E-015  6.715511383972229E-015
 reorthoganalization of MOs is carried out
 sum over diagonal and offdiagdiagonal of C(T)*S*C for irrep
                     3
 -7.549516567451064E-015  1.456532552312685E-014
 
 sum over diagonal and offdiagdiagonal of C(T)*S*C for irrep
                     4
  1.865174681370263E-014 -1.495222538448401E-014
 reorthoganalization of MOs is carried out
 sum over diagonal and offdiagdiagonal of C(T)*S*C for irrep
                     4
 -5.551115123125783E-016  1.208411083870875E-016
  processed                  97095  ao basis integrals from 
                   162  buffers.
  processed                 159929  ao basis integrals from 
                   267  buffers.
  processed                 290612  ao basis integrals from 
                   485  buffers.
      15          -398.363506780665148              0.8496695381D-07
   current occupation vector 
     5  2  2  0
     5  1  2  0
  processed                  97095  ao basis integrals from 
                   162  buffers.
  processed                 159929  ao basis integrals from 
                   267  buffers.
  processed                 290612  ao basis integrals from 
                   485  buffers.
      16          -398.363506780665148              0.7909744165D-08
   current occupation vector 
     5  2  2  0
     5  1  2  0
  processed                  97095  ao basis integrals from 
                   162  buffers.
  processed                 159929  ao basis integrals from 
                   267  buffers.
  processed                 290612  ao basis integrals from 
                   485  buffers.
      17          -398.363506780664579              0.1552210332D-08
   current occupation vector 
     5  2  2  0
     5  1  2  0
  processed                  97095  ao basis integrals from 
                   162  buffers.
  processed                 159929  ao basis integrals from 
                   267  buffers.
  processed                 290612  ao basis integrals from 
                   485  buffers.
      18          -398.363506780664920              0.1407168548D-09
   current occupation vector 
     5  2  2  0
     5  1  2  0
  processed                  97095  ao basis integrals from 
                   162  buffers.
  processed                 159929  ao basis integrals from 
                   267  buffers.
  processed                 290612  ao basis integrals from 
                   485  buffers.
      19          -398.363506780665659              0.5882944132D-10
   current occupation vector 
     5  2  2  0
     5  1  2  0
 
 sum over diagonal and offdiagdiagonal of C(T)*S*C for irrep
                     1
  7.216449660063518E-014  1.103565902610784E-014
 reorthoganalization of MOs is carried out
 sum over diagonal and offdiagdiagonal of C(T)*S*C for irrep
                     1
 -2.176037128265307E-014 -7.482949687513673E-014
 
 sum over diagonal and offdiagdiagonal of C(T)*S*C for irrep
                     2
  4.629630012686903E-014  7.501423042557590E-016
 reorthoganalization of MOs is carried out
 sum over diagonal and offdiagdiagonal of C(T)*S*C for irrep
                     2
 -1.110223024625157E-016 -5.091606254188662E-015
 
 sum over diagonal and offdiagdiagonal of C(T)*S*C for irrep
                     3
  8.071321389024888E-014 -7.571496840821742E-015
 reorthoganalization of MOs is carried out
 sum over diagonal and offdiagdiagonal of C(T)*S*C for irrep
                     3
  6.439293542825908E-015  3.337272247594222E-014
 
 sum over diagonal and offdiagdiagonal of C(T)*S*C for irrep
                     4
 -3.774758283725532E-015 -1.008825049322523E-014
 reorthoganalization of MOs is carried out
 sum over diagonal and offdiagdiagonal of C(T)*S*C for irrep
                     4
 -1.332267629550188E-015  8.149337866851514E-016
  processed                  97095  ao basis integrals from 
                   162  buffers.
  processed                 159929  ao basis integrals from 
                   267  buffers.
  processed                 290612  ao basis integrals from 
                   485  buffers.
      20          -398.363506780665148              0.2553397598D-10
   current occupation vector 
     5  2  2  0
     5  1  2  0
  processed                  97095  ao basis integrals from 
                   162  buffers.
  processed                 159929  ao basis integrals from 
                   267  buffers.
  processed                 290612  ao basis integrals from 
                   485  buffers.
      21          -398.363506780666057              0.2741140648D-11
   current occupation vector 
     5  2  2  0
     5  1  2  0
  processed                  97095  ao basis integrals from 
                   162  buffers.
  processed                 159929  ao basis integrals from 
                   267  buffers.
  processed                 290612  ao basis integrals from 
                   485  buffers.
      22          -398.363506780666057              0.1016076112D-11
   current occupation vector 
     5  2  2  0
     5  1  2  0
  processed                  97095  ao basis integrals from 
                   162  buffers.
  processed                 159929  ao basis integrals from 
                   267  buffers.
  processed                 290612  ao basis integrals from 
                   485  buffers.
      23          -398.363506780665546              0.3198552534D-12
   current occupation vector 
     5  2  2  0
     5  1  2  0
  processed                  97095  ao basis integrals from 
                   162  buffers.
  processed                 159929  ao basis integrals from 
                   267  buffers.
  processed                 290612  ao basis integrals from 
                   485  buffers.
      24          -398.363506780665602              0.5316858065D-12
   current occupation vector 
     5  2  2  0
     5  1  2  0
 
 sum over diagonal and offdiagdiagonal of C(T)*S*C for irrep
                     1
  1.135758154191535E-013  9.976925750607524E-014
 reorthoganalization of MOs is carried out
 sum over diagonal and offdiagdiagonal of C(T)*S*C for irrep
                     1
 -1.332267629550188E-015 -5.587888669456087E-014
 
 sum over diagonal and offdiagdiagonal of C(T)*S*C for irrep
                     2
  9.325873406851315E-015 -1.910908639155716E-014
 reorthoganalization of MOs is carried out
 sum over diagonal and offdiagdiagonal of C(T)*S*C for irrep
                     2
 -6.661338147750939E-016  2.719164662268432E-015
 
 sum over diagonal and offdiagdiagonal of C(T)*S*C for irrep
                     3
  7.338574192772285E-014  5.421214445472906E-014
 reorthoganalization of MOs is carried out
 sum over diagonal and offdiagdiagonal of C(T)*S*C for irrep
                     3
 -2.320366121466577E-014 -2.403482024832782E-014
 
 sum over diagonal and offdiagdiagonal of C(T)*S*C for irrep
                     4
  7.882583474838611E-015  1.094556303232741E-014
 reorthoganalization of MOs is carried out
 sum over diagonal and offdiagdiagonal of C(T)*S*C for irrep
                     4
  1.110223024625157E-016  4.052476670207694E-016
  processed                  97095  ao basis integrals from 
                   162  buffers.
  processed                 159929  ao basis integrals from 
                   267  buffers.
  processed                 290612  ao basis integrals from 
                   485  buffers.
      25          -398.363506780665261              0.2593480986D-12
   current occupation vector 
     5  2  2  0
     5  1  2  0
  processed                  97095  ao basis integrals from 
                   162  buffers.
  processed                 159929  ao basis integrals from 
                   267  buffers.
  processed                 290612  ao basis integrals from 
                   485  buffers.
      26          -398.363506780665091              0.2157163337D-12
   current occupation vector 
     5  2  2  0
     5  1  2  0
  processed                  97095  ao basis integrals from 
                   162  buffers.
  processed                 159929  ao basis integrals from 
                   267  buffers.
  processed                 290612  ao basis integrals from 
                   485  buffers.
      27          -398.363506780665375              0.2099431740D-12
   current occupation vector 
     5  2  2  0
     5  1  2  0

  SCF has converged.

 Density matrix saved to file den.dat
 total alpha spin electron number:   8.99999999999998     
 total  beta spin electron number:   7.99999999999998     
  processed                  97095  ao basis integrals from 
                   162  buffers.
  processed                 159929  ao basis integrals from 
                   267  buffers.
  processed                 290612  ao basis integrals from 
                   485  buffers.
     E(ROHF)=      -398.363506780665602              0.1676436767D-13


  Final occupancies:

     Alpha population by irrep:   5    2    2    0
      Beta population by irrep:   5    1    2    0



       The average multiplicity is    2.0000000
  The expectation value of S**2 is    0.7500000

 @PUTMOS-I, Writing converged MOs to NEWMOS. 
 @PUTMOS-I, Symmetry   1 Full Blocks  7 Partial Blocksize   0
 @PUTMOS-I, Symmetry   2 Full Blocks  3 Partial Blocksize   2
 @PUTMOS-I, Symmetry   3 Full Blocks  5 Partial Blocksize   0
 @PUTMOS-I, Symmetry   4 Full Blocks  2 Partial Blocksize   0
  @DMPJOB-I, Rotating orbitals to semicanonical basis.
             *** Eigenvalues correspond to new basis. ***

--------------------------------------------------------------------------------
Eigenvalue    -92.362185     -9.363002     -7.058801     -7.039658     -7.039054
 Symmetry          A1            A1            B1            B2            A1    
--------------------------------------------------------------------------------
   1 S         0.0001855     0.0002528     0.0000000     0.0002763     0.0003439
   1 S        -0.0021794    -0.0006312     0.0000000     0.0034102     0.0011965
   1 S        -0.0001565     0.0003866     0.0000000    -0.0004777     0.0001022
   1 PX        0.0000000     0.0000000     0.0000226     0.0000000     0.0000000
   1 PY       -0.0000757     0.0000633     0.0000000    -0.0000962    -0.0001502
   1 PZ        0.0000747    -0.0000590     0.0000000     0.0000891     0.0001413
   1 PX        0.0000000     0.0000000     0.0002905     0.0000000     0.0000000
   1 PY       -0.0009856    -0.0003312     0.0000000     0.0008665     0.0006227
   1 PZ        0.0008804     0.0002837     0.0000000    -0.0012567     0.0001225
   1 DX2       0.0001115    -0.0000228     0.0000000     0.0000641     0.0000854
   1 DXY       0.0000000     0.0000000    -0.0000012     0.0000000     0.0000000
   1 DXZ       0.0000000     0.0000000     0.0000178     0.0000000     0.0000000
   1 DY2      -0.0000615     0.0000145     0.0000000    -0.0000393    -0.0000129
   1 DYZ       0.0003065    -0.0000936     0.0000000     0.0001272     0.0003097
   1 DZZ      -0.0000500     0.0000083     0.0000000    -0.0000249    -0.0000724
   2 S         0.9986251    -0.2875349     0.0000000     0.0000000     0.0014349
   2 S        -0.0286009    -0.2483914     0.0000000     0.0000000     0.0018876
   2 S        -0.0075815     0.8060201     0.0000000     0.0000000    -0.0044821
   2 S         0.0029594     0.0139681     0.0000000     0.0000000     0.0025775
   2 S         0.0016882    -0.0015044     0.0000000     0.0000000    -0.0022683
   2 PX        0.0000000     0.0000000     0.7133182     0.0000000     0.0000000
   2 PY        0.0000000     0.0000000     0.0000000    -0.7136747     0.0000000
   2 PZ        0.0001181     0.0027031     0.0000000     0.0000000     0.7143947
   2 PX        0.0000000     0.0000000     0.3502845     0.0000000     0.0000000
   2 PY        0.0000000     0.0000000     0.0000000    -0.3493362     0.0000000
   2 PZ       -0.0000938     0.0025811     0.0000000     0.0000000     0.3489313
   2 PX        0.0000000     0.0000000     0.0589665     0.0000000     0.0000000
   2 PY        0.0000000     0.0000000     0.0000000    -0.0602474     0.0000000
   2 PZ       -0.0002543     0.0000942     0.0000000     0.0000000     0.0590368
   2 PX        0.0000000     0.0000000    -0.0069413     0.0000000     0.0000000
   2 PY        0.0000000     0.0000000     0.0000000     0.0096961     0.0000000
   2 PZ        0.0024040     0.0011691     0.0000000     0.0000000    -0.0070052
   2 PX        0.0000000     0.0000000     0.0016802     0.0000000     0.0000000
   2 PY        0.0000000     0.0000000     0.0000000    -0.0015410     0.0000000
   2 PZ        0.0002918    -0.0003604     0.0000000     0.0000000     0.0011994
   2 DX2      -0.0004684    -0.0002419     0.0000000     0.0000000     0.0003579
   2 DXY       0.0000000     0.0000000     0.0000000     0.0000000     0.0000000
   2 DXZ       0.0000000     0.0000000    -0.0004217     0.0000000     0.0000000
   2 DY2       0.0002286     0.0000815     0.0000000     0.0000000     0.0002040
   2 DYZ       0.0000000     0.0000000     0.0000000     0.0024913     0.0000000
   2 DZZ       0.0002398     0.0001603     0.0000000     0.0000000    -0.0005619
   2 DX2       0.0000346     0.0002374     0.0000000     0.0000000    -0.0001703
   2 DXY       0.0000000     0.0000000     0.0000000     0.0000000     0.0000000
   2 DXZ       0.0000000     0.0000000     0.0010440     0.0000000     0.0000000
   2 DY2      -0.0000211     0.0000049     0.0000000     0.0000000    -0.0004504
   2 DYZ       0.0000000     0.0000000     0.0000000    -0.0005186     0.0000000
   2 DZZ      -0.0000135    -0.0002422     0.0000000     0.0000000     0.0006206
   2 DX2      -0.0001570     0.0000062     0.0000000     0.0000000    -0.0003337
   2 DXY       0.0000000     0.0000000     0.0000000     0.0000000     0.0000000
   2 DXZ       0.0000000     0.0000000     0.0002725     0.0000000     0.0000000
   2 DY2       0.0000969     0.0000368     0.0000000     0.0000000     0.0000183
   2 DYZ       0.0000000     0.0000000     0.0000000    -0.0007285     0.0000000
   2 DZZ       0.0000600    -0.0000430     0.0000000     0.0000000     0.0003154
   2 FX3       0.0000000     0.0000000     0.0000279     0.0000000     0.0000000
   2 FX2Y      0.0000000     0.0000000     0.0000000    -0.0001969     0.0000000
   2 FX2Z     -0.0002020    -0.0001335     0.0000000     0.0000000     0.0000356
   2 FXY2      0.0000000     0.0000000    -0.0000199     0.0000000     0.0000000
   2 FXYZ      0.0000000     0.0000000     0.0000000     0.0000000     0.0000000
   2 FXZ2      0.0000000     0.0000000    -0.0000638     0.0000000     0.0000000
   2 FY3       0.0000000     0.0000000     0.0000000    -0.0000049     0.0000000
   2 FY2Z      0.0002993     0.0002039     0.0000000     0.0000000     0.0002025
   2 FYZ2      0.0000000     0.0000000     0.0000000     0.0002116     0.0000000
   2 FZ3      -0.0000325    -0.0000235     0.0000000     0.0000000    -0.0000794
   3 S         0.0001855     0.0002528     0.0000000    -0.0002763     0.0003439
   3 S        -0.0021794    -0.0006312     0.0000000    -0.0034102     0.0011965
   3 S        -0.0001565     0.0003866     0.0000000     0.0004777     0.0001022
   3 PX        0.0000000     0.0000000     0.0000226     0.0000000     0.0000000
   3 PY        0.0000757    -0.0000633     0.0000000    -0.0000962     0.0001502
   3 PZ        0.0000747    -0.0000590     0.0000000    -0.0000891     0.0001413
   3 PX        0.0000000     0.0000000     0.0002905     0.0000000     0.0000000
   3 PY        0.0009856     0.0003312     0.0000000     0.0008665    -0.0006227
   3 PZ        0.0008804     0.0002837     0.0000000     0.0012567     0.0001225
   3 DX2       0.0001115    -0.0000228     0.0000000    -0.0000641     0.0000854
   3 DXY       0.0000000     0.0000000     0.0000012     0.0000000     0.0000000
   3 DXZ       0.0000000     0.0000000     0.0000178     0.0000000     0.0000000
   3 DY2      -0.0000615     0.0000145     0.0000000     0.0000393    -0.0000129
   3 DYZ      -0.0003065     0.0000936     0.0000000     0.0001272    -0.0003097
   3 DZZ      -0.0000500     0.0000083     0.0000000     0.0000249    -0.0000724
--------------------------------------------------------------------------------
Eigenvalue     -1.364386     -0.929741     -0.852641     -0.795179     -0.128582
 Symmetry          A1            B2            A1            B1            B2    
--------------------------------------------------------------------------------
   1 S         0.0774691     0.1295440     0.0878020     0.0000000     0.0953317
   1 S         0.1182953     0.2115597     0.1577683     0.0000000     0.2741965
   1 S         0.0009927     0.0510804     0.0336106     0.0000000     0.9492043
   1 PX        0.0000000     0.0000000     0.0000000     0.0055199     0.0000000
   1 PY        0.0073221     0.0063593     0.0071749     0.0000000    -0.0014018
   1 PZ       -0.0065081    -0.0097250    -0.0027180     0.0000000     0.0065562
   1 PX        0.0000000     0.0000000     0.0000000     0.0160695     0.0000000
   1 PY        0.0196630     0.0095533     0.0173500     0.0000000     0.0181838
   1 PZ       -0.0172392    -0.0190275    -0.0011052     0.0000000    -0.0054818
   1 DX2      -0.0010782    -0.0007468    -0.0007929     0.0000000     0.0006966
   1 DXY       0.0000000     0.0000000     0.0000000     0.0020231     0.0000000
   1 DXZ       0.0000000     0.0000000     0.0000000    -0.0020493     0.0000000
   1 DY2       0.0007955    -0.0004371     0.0013783     0.0000000     0.0002218
   1 DYZ      -0.0032140    -0.0025903    -0.0019686     0.0000000    -0.0007953
   1 DZZ       0.0002827     0.0011839    -0.0005854     0.0000000    -0.0009184
   2 S         0.0778702     0.0000000    -0.0288752     0.0000000     0.0000000
   2 S         0.0744239     0.0000000    -0.0286184     0.0000000     0.0000000
   2 S        -0.4479317     0.0000000     0.1743803     0.0000000     0.0000000
   2 S         0.6651203     0.0000000    -0.2901487     0.0000000     0.0000000
   2 S         0.3188448     0.0000000    -0.2417112     0.0000000     0.0000000
   2 PX        0.0000000     0.0000000     0.0000000    -0.2049568     0.0000000
   2 PY        0.0000000     0.1560413     0.0000000     0.0000000    -0.1100988
   2 PZ       -0.0279243     0.0000000    -0.1718844     0.0000000     0.0000000
   2 PX        0.0000000     0.0000000     0.0000000    -0.1049509     0.0000000
   2 PY        0.0000000     0.0818029     0.0000000     0.0000000    -0.0588701
   2 PZ       -0.0168309     0.0000000    -0.0884702     0.0000000     0.0000000
   2 PX        0.0000000     0.0000000     0.0000000     0.2641789     0.0000000
   2 PY        0.0000000    -0.1942357     0.0000000     0.0000000     0.1574351
   2 PZ        0.0348354     0.0000000     0.2189210     0.0000000     0.0000000
   2 PX        0.0000000     0.0000000     0.0000000     0.6256221     0.0000000
   2 PY        0.0000000    -0.4116766     0.0000000     0.0000000     0.3236323
   2 PZ        0.0336873     0.0000000     0.4690168     0.0000000     0.0000000
   2 PX        0.0000000     0.0000000     0.0000000     0.2487722     0.0000000
   2 PY        0.0000000    -0.1098831     0.0000000     0.0000000     1.0128339
   2 PZ        0.0063662     0.0000000     0.1712906     0.0000000     0.0000000
   2 DX2      -0.0034998     0.0000000    -0.0192767     0.0000000     0.0000000
   2 DXY       0.0000000     0.0000000     0.0000000     0.0000000     0.0000000
   2 DXZ       0.0000000     0.0000000     0.0000000     0.0216802     0.0000000
   2 DY2       0.0016977     0.0000000     0.0058648     0.0000000     0.0000000
   2 DYZ       0.0000000    -0.0670579     0.0000000     0.0000000    -0.1169809
   2 DZZ       0.0018021     0.0000000     0.0134120     0.0000000     0.0000000
   2 DX2      -0.0017005     0.0000000    -0.0035298     0.0000000     0.0000000
   2 DXY       0.0000000     0.0000000     0.0000000     0.0000000     0.0000000
   2 DXZ       0.0000000     0.0000000     0.0000000     0.0018990     0.0000000
   2 DY2       0.0009229     0.0000000     0.0014631     0.0000000     0.0000000
   2 DYZ       0.0000000    -0.0131018     0.0000000     0.0000000    -0.0230417
   2 DZZ       0.0007777     0.0000000     0.0020667     0.0000000     0.0000000
   2 DX2      -0.0088779     0.0000000    -0.0171603     0.0000000     0.0000000
   2 DXY       0.0000000     0.0000000     0.0000000     0.0000000     0.0000000
   2 DXZ       0.0000000     0.0000000     0.0000000     0.0085113     0.0000000
   2 DY2       0.0050026     0.0000000     0.0072459     0.0000000     0.0000000
   2 DYZ       0.0000000    -0.0682218     0.0000000     0.0000000    -0.1108197
   2 DZZ       0.0038753     0.0000000     0.0099145     0.0000000     0.0000000
   2 FX3       0.0000000     0.0000000     0.0000000     0.0021422     0.0000000
   2 FX2Y      0.0000000     0.0052697     0.0000000     0.0000000     0.0053524
   2 FX2Z     -0.0024493     0.0000000    -0.0026827     0.0000000     0.0000000
   2 FXY2      0.0000000     0.0000000     0.0000000    -0.0023876     0.0000000
   2 FXYZ      0.0000000     0.0000000     0.0000000     0.0000000     0.0000000
   2 FXZ2      0.0000000     0.0000000     0.0000000    -0.0040389     0.0000000
   2 FY3       0.0000000     0.0006788     0.0000000     0.0000000     0.0012739
   2 FY2Z      0.0041504     0.0000000     0.0050399     0.0000000     0.0000000
   2 FYZ2      0.0000000    -0.0073062     0.0000000     0.0000000    -0.0091742
   2 FZ3      -0.0005670     0.0000000    -0.0007857     0.0000000     0.0000000
   3 S         0.0774691    -0.1295440     0.0878020     0.0000000    -0.0953317
   3 S         0.1182953    -0.2115597     0.1577683     0.0000000    -0.2741965
   3 S         0.0009927    -0.0510804     0.0336106     0.0000000    -0.9492043
   3 PX        0.0000000     0.0000000     0.0000000     0.0055199     0.0000000
   3 PY       -0.0073221     0.0063593    -0.0071749     0.0000000    -0.0014018
   3 PZ       -0.0065081     0.0097250    -0.0027180     0.0000000    -0.0065562
   3 PX        0.0000000     0.0000000     0.0000000     0.0160695     0.0000000
   3 PY       -0.0196630     0.0095533    -0.0173500     0.0000000     0.0181838
   3 PZ       -0.0172392     0.0190275    -0.0011052     0.0000000     0.0054818
   3 DX2      -0.0010782     0.0007468    -0.0007929     0.0000000    -0.0006966
   3 DXY       0.0000000     0.0000000     0.0000000    -0.0020231     0.0000000
   3 DXZ       0.0000000     0.0000000     0.0000000    -0.0020493     0.0000000
   3 DY2       0.0007955     0.0004371     0.0013783     0.0000000    -0.0002218
   3 DYZ       0.0032140    -0.0025903     0.0019686     0.0000000    -0.0007953
   3 DZZ       0.0002827    -0.0011839    -0.0005854     0.0000000     0.0009184
--------------------------------------------------------------------------------
Eigenvalue     -0.116444      0.051179      0.051237      0.127917      0.139855
 Symmetry          A1            A1            B2            B1            A1    
--------------------------------------------------------------------------------
   1 S         0.0529573     0.0639190     0.0284802     0.0000000     0.0123406
   1 S         0.2388456     0.4816563     0.4576425     0.0000000    -0.1436034
   1 S         1.1003341    -0.5722961    -1.2002046     0.0000000    -0.1190787
   1 PX        0.0000000     0.0000000     0.0000000     0.0053004     0.0000000
   1 PY       -0.0121467     0.0075430     0.0162551     0.0000000     0.0110602
[...]
-----------------------------------------------------------------------------
   Norm of T1BB vector (       64 symmetry allowed elements):  0.0373275091.
-----------------------------------------------------------------------------
   Largest T2 amplitudes for spin case BB:
   i   j   a   b             i   j   a   b             i   j   a   b
-----------------------------------------------------------------------------
[  3   2  40   6] 0.02112 [  3   2  40   5] 0.01795 [  2   1  29  27] 0.01610
[  3   2  40   7]-0.01549 [  3   2  58  29]-0.01386 [  3   1  58  27] 0.01346
[  3   2  41   6] 0.01270 [  3   2  42   7]-0.00913 [  3   2  42   5] 0.00891
[  2   1  43  40]-0.00737 [  3   1  41   4] 0.00715 [  3   2  43   6]-0.00711
[  3   2  42   6] 0.00706 [  3   2  58  27]-0.00657 [  2   1  29  28]-0.00655
-----------------------------------------------------------------------------
   Norm of T2BB vector (     1548 symmetry allowed elements):  0.0586490871.
-----------------------------------------------------------------------------
   Largest T2 amplitudes for spin case AB:
       _       _                 _       _                 _       _
   i   j   a   b             i   j   a   b             i   j   a   b
-----------------------------------------------------------------------------
[  2   2  40  40]-0.05566 [  4   3  40  40]-0.04724 [  3   1   6  27] 0.04093
[  2   2  29  29]-0.03503 [  3   2  58  40] 0.03320 [  2   2   8   7]-0.03295
[  2   1  29  27] 0.03136 [  4   1  58  27] 0.03124 [  2   2   7   6]-0.02908
[  3   1   5  27] 0.02804 [  4   3  58  58]-0.02775 [  4   2  40   7]-0.02741
[  2   2  29  27]-0.02694 [  2   2  40  42]-0.02485 [  2   2   7   7] 0.02426
-----------------------------------------------------------------------------
   Norm of T2AB vector (    12021 symmetry allowed elements):  0.2670922566.
-----------------------------------------------------------------------------
  W(mnij) AA contribution =  0.0035541105 a.u.
  W(mnij) BB contribution =  0.0012471170 a.u.
  W(mnij) AB contribution =  0.0373060188 a.u.
  W(abef) AA contribution =  0.0048024235 a.u.
  W(abef) BB contribution =  0.0017431625 a.u.
  W(abef) AB contribution =  0.0528137531 a.u.
  W(mbej) AA contribution =  -0.0106322437 a.u.
  W(mbej) BB contribution =  -0.0036184411 a.u.
  W(mbej) AB contribution = -0.1349688832 a.u.
   After  16 iterations, amplitude changes are:
    -------------------------------------------------------------------
                 Spin      RMS          Max.      Max. change for
     Amplitude   Case     Change       Change       i    j    a    b
    -------------------------------------------------------------------
        T1        AA    0.0000000000-0.0000000010    4        40
        T1        BB    0.0000000000 0.0000000008    2         4
        T2        AA    0.0000000000-0.0000000002    3    2   29    7
        T2        BB    0.0000000000 0.0000000006    3    2   58   27
        T2        AB    0.0000000000-0.0000000028    3    3   40   27
    -------------------------------------------------------------------
   The AA contribution to the correlation energy is:   -0.0233923 a.u.
   The BB contribution to the correlation energy is:   -0.0100041 a.u.
   The AB contribution to the correlation energy is:   -0.1493703 a.u.
   The total correlation energy is -0.182766688722 a.u.
   The total correlation energy is -0.182766688722 a.u.
  Current DIIS expansion coefficients : 
 [   1] 1.4035373102 [   2]-0.0085888285 [   3] 0.0632013716 [   4]-0.1341358656
 [   5]-0.3240139877
  Convergence information after    16 iterations: 
  Largest element of residual vector : -0.27647533E-08.
  Largest element of DIIS residual   :  0.69101156E-09.
  W(mnij) AA contribution =  0.0035541105 a.u.
  W(mnij) BB contribution =  0.0012471170 a.u.
  W(mnij) AB contribution =  0.0373060186 a.u.
  W(abef) AA contribution =  0.0048024236 a.u.
  W(abef) BB contribution =  0.0017431625 a.u.
  W(abef) AB contribution =  0.0528137529 a.u.
  W(mbej) AA contribution =  -0.0106322438 a.u.
  W(mbej) BB contribution =  -0.0036184410 a.u.
  W(mbej) AB contribution = -0.1349688823 a.u.
   After  17 iterations, amplitude changes are:
    -------------------------------------------------------------------
                 Spin      RMS          Max.      Max. change for
     Amplitude   Case     Change       Change       i    j    a    b
    -------------------------------------------------------------------
        T1        AA    0.0000000000-0.0000000005    4        40
        T1        BB    0.0000000000 0.0000000002    2         4
        T2        AA    0.0000000000 0.0000000001    3    2   58   40
        T2        BB    0.0000000000 0.0000000001    3    2   58   27
        T2        AB    0.0000000000-0.0000000004    3    3   40   27
    -------------------------------------------------------------------
   The AA contribution to the correlation energy is:   -0.0233923 a.u.
   The BB contribution to the correlation energy is:   -0.0100041 a.u.
   The AB contribution to the correlation energy is:   -0.1493703 a.u.
   The total correlation energy is -0.182766688680 a.u.
   The total correlation energy is -0.182766688680 a.u.
  Current DIIS expansion coefficients : 
 [   1]-0.2488050753 [   2] 1.2514887211 [   3]-0.0043837850 [   4] 0.0448618686
 [   5]-0.0431617294
  Convergence information after    17 iterations: 
  Largest element of residual vector : -0.48817719E-09.
  Largest element of DIIS residual   : -0.29311703E-09.
  Amplitude equations converged in    17iterations.
   The AA contribution to the correlation energy is:   -0.0233923 a.u.
   The BB contribution to the correlation energy is:   -0.0100041 a.u.
   The AB contribution to the correlation energy is:   -0.1493703 a.u.
   The total correlation energy is -0.182766688672 a.u.
   The total correlation energy is -0.182766688672 a.u.
   The CC iterations have converged.

            ----------------------------------------------
                     Projected spin multiplicities: 
            ----------------------------------------------
             <0|S^2|0>                  =    0.7500000000.
             <0|S^2 (T2+T1**2) |0>      =    0.0000000000.
             <0|S^2 T1|0>               =    0.0000000000.
             Projected <0|S^2 exp(T)|0> =    0.7500000000.
             Approximate spin mult.     =    2.0000000000.
            ----------------------------------------------
   Largest T1 amplitudes for spin case AA:
   i       a                 i       a                 i       a    
-----------------------------------------------------------------------------
[  1       6    ]-0.02756 [  1       5    ]-0.02381 [  4      40    ]-0.02328
[  2       7    ]-0.01271 [  1       8    ]-0.01126 [  3      29    ]-0.01073
[  2       6    ] 0.01047 [  1      10    ]-0.01036 [  4      42    ]-0.00966
[  1      12    ]-0.00635 [  4      45    ]-0.00604 [  2      10    ] 0.00597
[  1      14    ]-0.00594 [  2      11    ] 0.00554 [  2       5    ] 0.00535
-----------------------------------------------------------------------------
   Norm of T1AA vector (       76 symmetry allowed elements):  0.0541336721.
-----------------------------------------------------------------------------
   Largest T2 amplitudes for spin case AA:
   i   j   a   b             i   j   a   b             i   j   a   b
-----------------------------------------------------------------------------
[  4   3  58   6]-0.03001 [  4   2  40   7] 0.02855 [  3   2  29   7]-0.02333
[  3   2  58  40] 0.02271 [  3   2  29   6] 0.02243 [  4   3  40  29] 0.01854
[  3   2  29   8] 0.01597 [  4   3  58   5]-0.01484 [  3   2  28   8]-0.01472
[  3   2  29   5] 0.01430 [  4   2  41   7] 0.01266 [  4   3  58   7]-0.01263
[  4   2  40   8]-0.01257 [  4   2  58  29]-0.01255 [  4   2  40   6] 0.01144
-----------------------------------------------------------------------------
   Norm of T2AA vector (     2760 symmetry allowed elements):  0.0963966229.
-----------------------------------------------------------------------------
   Largest T1 amplitudes for spin case BB:
   i       a                 i       a                 i       a    
-----------------------------------------------------------------------------
[  1       5    ] 0.01518 [  1       7    ] 0.01320 [  2       9    ]-0.01312
[  2       8    ] 0.01282 [  2       5    ]-0.01155 [  3      43    ] 0.00953
[  1       8    ]-0.00834 [  1       9    ] 0.00710 [  1       4    ] 0.00633
[  2      14    ] 0.00624 [  3      47    ] 0.00615 [  1      13    ] 0.00597
[  2       6    ]-0.00535 [  3      44    ]-0.00482 [  2      10    ]-0.00475
-----------------------------------------------------------------------------
   Norm of T1BB vector (       64 symmetry allowed elements):  0.0373275084.
-----------------------------------------------------------------------------
   Largest T2 amplitudes for spin case BB:
   i   j   a   b             i   j   a   b             i   j   a   b
-----------------------------------------------------------------------------
[  3   2  40   6] 0.02112 [  3   2  40   5] 0.01795 [  2   1  29  27] 0.01610
[  3   2  40   7]-0.01549 [  3   2  58  29]-0.01386 [  3   1  58  27] 0.01346
[  3   2  41   6] 0.01270 [  3   2  42   7]-0.00913 [  3   2  42   5] 0.00891
[  2   1  43  40]-0.00737 [  3   1  41   4] 0.00715 [  3   2  43   6]-0.00711
[  3   2  42   6] 0.00706 [  3   2  58  27]-0.00657 [  2   1  29  28]-0.00655
-----------------------------------------------------------------------------
   Norm of T2BB vector (     1548 symmetry allowed elements):  0.0586490868.
-----------------------------------------------------------------------------
   Largest T2 amplitudes for spin case AB:
       _       _                 _       _                 _       _
   i   j   a   b             i   j   a   b             i   j   a   b
-----------------------------------------------------------------------------
[  2   2  40  40]-0.05566 [  4   3  40  40]-0.04724 [  3   1   6  27] 0.04093
[  2   2  29  29]-0.03503 [  3   2  58  40] 0.03320 [  2   2   8   7]-0.03295
[  2   1  29  27] 0.03136 [  4   1  58  27] 0.03124 [  2   2   7   6]-0.02908
[  3   1   5  27] 0.02804 [  4   3  58  58]-0.02775 [  4   2  40   7]-0.02741
[  2   2  29  27]-0.02694 [  2   2  40  42]-0.02485 [  2   2   7   7] 0.02426
-----------------------------------------------------------------------------
   Norm of T2AB vector (    12021 symmetry allowed elements):  0.2670922559.
-----------------------------------------------------------------------------
       Summary of iterative solution of CC equations 
      -----------------------------------------------------------
                       Correlation           Total
       Iteration         Energy              Energy
      -----------------------------------------------------------
            0        -0.156781861126    -398.520288641791  DIIS 
            1        -0.176077908915    -398.539584689581  DIIS 
            2        -0.180696468634    -398.544203249299  DIIS 
            3        -0.182497955736    -398.546004736402  DIIS 
            4        -0.182749712517    -398.546256493183  DIIS 
            5        -0.182767336218    -398.546274116884  DIIS 
            6        -0.182765274260    -398.546272054925  DIIS 
            7        -0.182766078471    -398.546272859137  DIIS 
            8        -0.182766665709    -398.546273446374  DIIS 
            9        -0.182766842539    -398.546273623205  DIIS 
           10        -0.182766768406    -398.546273549071  DIIS 
           11        -0.182766714835    -398.546273495500  DIIS 
           12        -0.182766694498    -398.546273475164  DIIS 
           13        -0.182766690188    -398.546273470854  DIIS 
           14        -0.182766689092    -398.546273469758  DIIS 
           15        -0.182766688888    -398.546273469554  DIIS 
           16        -0.182766688722    -398.546273469387  DIIS 
           17        -0.182766688672    -398.546273469338  DIIS 
      -----------------------------------------------------------
      A miracle has come to pass. The CC iterations have converged.
 @DIMT3-I, Dimensions of T3 amplitudes : 
               # abc          # ijk       Symmetry    Spin 
                     9180              0     1          1
                     8740              1     2          1
                     9270              1     3          1
                     8800              2     4          1
                    29340              4     1          2
                    27440              5     2          2
                    29290              5     3          2
                    27390              4     4          2
                    29760              4     1          3
                    28001              1     2          3
                    29690              5     3          3
                    27900              2     4          3
                     9600              0     1          4
                     9240              0     2          4
                     9670              1     3          4
                     9310              0     4          4
 @DIMT3-I, Dimensions of T3 amplitudes : 
               # abc          # ijk       Symmetry    Spin 
                     9180              0     1          1
                     8740              1     2          1
                     9270              1     3          1
                     8800              2     4          1
                    29340              4     1          2
                    27440              5     2          2
                    29290              5     3          2
                    27390              4     4          2
                    29760              4     1          3
                    28001              1     2          3
                    29690              5     3          3
                    27900              2     4          3
                     9600              0     1          4
                     9240              0     2          4
                     9670              1     3          4
                     9310              0     4          4
 @TRPS-I, Welcome to TRPS. Watch your RUs ! 
 @TRPS-I, Method is CCSD(T) 
 @TRPS-I, Calculation type is energy 
 @TRPS-I, Reference function information : 
          Reference function is general non-HF 
 @TRPS-I, Reference function is ROHF 
 @TRPS-I, INT1 is true 
 @TRPS-I, INT2 is false 
 @TRPS-I, Lengths of ijka integrals. #1        366
                                     #2        182
                                     #3        648
                                     #4        814
                                    Max        814
 @INITRP-I, Initializing W intermediate lists. 
 @TSPABCI-I, AbIc/AbcI record transposition. 
 @TSPABCI-I, (O,v) ---> (v,O) transposition. 
 @TSPABCI-I, In-core algorithm is being used. 
 @TSPABCI-I, In-core algorithm is being used. 
 @TSPABCI-I, In-core algorithm is being used. 
 @TSPABCI-I, In-core algorithm is being used. 
 @TRPS-I, Available memory in integer words    499959040
          Number of pre-allocated words for TRPS14         2577
          Number of free words for TRPS14    499956463
 @TRPS14-I, Spin case AAA 
 @TRPS14-I, Number of free integer words  499956463
            Number of free double words   499956463
            Ratio                                 1
 @TRPS14-I, E4TAAA      -0.000180418085
 @TRPS14-I, E5ST A    0.000005982579549
 @TRPS14-I, E4ST A    0.000001172119072
 @TRPS-I, Available memory in integer words    499959040
          Number of pre-allocated words for TRPS14         2574
          Number of free words for TRPS14    499956466
 @TRPS14-I, Spin case BBB 
 @TRPS14-I, Number of free integer words  499956466
            Number of free double words   499956466
            Ratio                                 1
 @TRPS14-I, E4TBBB      -0.000025397454
 @TRPS14-I, E5ST B   -0.000000588797349
 @TRPS14-I, E4ST B   -0.000000115414710
 @SETOOOV-I, Some OOOV lists are being transposed. 
 @TRPS-I, Available memory in integer words    499959040
          Number of pre-allocated words for TRPS2        20986
          Number of free words for TRPS2    499938054
 @TRPS2-I, Spin case AAB 
 @TRPS2-I, Number of free integer words  499938054
           Number of free double  words  499938054
           Ratio                                 1
 @TRPS2-I, E4TBAA      -0.003601954808
 @TRPS2-I, E5ST A    0.000032382857643
 @TRPS2-I, E5ST B   -0.000013842754777
 @TRPS2-I, E4ST A    0.000002171705834
 @TRPS2-I, E4ST B   -0.000015633993580
 @SETOOOV-I, Some OOOV lists are being transposed. 
 @TSPABCI2-I, (Alpha,Beta) ---> (Beta,Alpha). 
 @TSPABCI2-I, In-core algorithm is being used. 
 @TSPABCI2-I, In-core algorithm is being used. 
 @TSPABCI2-I, In-core algorithm is being used. 
 @TSPABCI2-I, In-core algorithm is being used. 
 @TSPABCI2-I, In-core algorithm is being used. 
 @TSPABCI2-I, In-core algorithm is being used. 
 @TSPABCI2-I, In-core algorithm is being used. 
 @TSPABCI2-I, In-core algorithm is being used. 
 @AT2IAB-I, Some AbIj lists are being altered. 
 @TRPS-I, Available memory in integer words    499959040
          Number of pre-allocated words for TRPS3        30814
          Number of free words for TRPS3    499928226
 @TRPS3-I, Spin case BBA 
 @TRPS3-I, Number of free integer words  499928226
           Number of free double  words  499928226
           Ratio                                 1
 @TRPS3-I, E4TBBA      -0.002090703897
 @TRPS3-I, E5ST A    0.000049748871286
 @TRPS3-I, E5ST B   -0.000034780737728
 @TRPS3-I, E4ST A    0.000003937956296
 @TRPS3-I, E4ST B   -0.000028695615948
 @TSPABCI2-I, (Beta,Alpha) ---> (Alpha,Beta). 
 @TSPABCI2-I, In-core algorithm is being used. 
 @TSPABCI2-I, In-core algorithm is being used. 
 @TSPABCI2-I, In-core algorithm is being used. 
 @TSPABCI2-I, In-core algorithm is being used. 
 @TSPABCI2-I, In-core algorithm is being used. 
 @TSPABCI2-I, In-core algorithm is being used. 
 @TSPABCI2-I, In-core algorithm is being used. 
 @TSPABCI2-I, In-core algorithm is being used. 
 @AT2IAB-I, Some AbIj lists are being altered. 
 @TSPABCI-I, AbIc/AbcI record transposition. 
 @TSPABCI-I, (v,O) ---> (O,v) transposition. 
 @TSPABCI-I, In-core algorithm is being used. 
 @TSPABCI-I, In-core algorithm is being used. 
 @TSPABCI-I, In-core algorithm is being used. 
 @TSPABCI-I, In-core algorithm is being used. 
 @CCENRG-I, CCSD/QCISD energy will now be evaluated. 
 @CCENRG-I, Correlation energies. ECCAA       -0.023392276913
                                  ECCBB       -0.010004084044
                                  ECCAB       -0.149370327715
                                  Total       -0.182766688672
 @CCENRG-I, Reference   energy    -398.363506780666
            CCSD/QCISD energy     -398.546273469338
          E4T (T(CCSD)) = -0.005898474244
          E5ST          =  0.000014968134
          E4ST          = -0.000024757660
          In other words  
          <T3[2](Dagger) D3  T3[2]> = -0.005898474244
          <T1   (Dagger) Q1 WT3[2]> =  0.000014968134
          <T2   (Dagger) Q2 FT3[2]> = -0.000024757660
        E(CCSD)           =    -398.546273469338
        E(CCSD(T))        =    -398.552181733108
  @CHECKOUT-I, Total execution time (CPU/WALL):        4.02/       4.05 seconds.
--executable xvcc finished with status     0 in        4.20 seconds (walltime).
  The final electronic energy is      -398.552181733107602 a.u. 
  This computation required                           13.49 seconds (walltime).
--- SharcNET Job Epilogue ---
Job completed successfully.
               jobid: 1968089
               resid: 3436247
         exit status: 0
      allocated time: 17.7471
           user time: 7.36
         system time: 2.04
peak rss=212295680; peak vsz=212295680 (bytes)
atime=17.7471; utime=7.36; stime=2.04; exit=0
