
 Primary working directories    : .
 Secondary working directories  : .
 Wavefunction directory         : /home/nike/wfu/
 Main file repository           : /project1/ayerslab/nike/V/a4z/./

 SHA1      : 960ce83de8be0427555cf121dea4debc26c720b5
 NAME      : 2012.1.960ce83
 ARCHNAME  : Linux/x86_64
 FC        : /opt/intel/composer_xe_2013_sp1.2.144/bin/intel64/ifort
 FCVERSION : 14.0.2
 BLASLIB   : -Wl,-_start-group /opt/intel/mkl/lib/intel64/libmkl_intel_ilp64.a /opt/intel/mkl/lib/intel64/libmkl_sequential.a /opt/intel/mkl/lib/intel64/libmkl_core.a -Wl,-_end-group
 id        : mcmasterca

 Nodes     nprocs
 wob119       1

 Using customized tuning parameters: mindgm=7; mindgv=24; mindgc=1; mindgr=1; noblas=0; minvec=7
 default implementation of scratch files=df  

  ***,V atom, mult=4
 geometry={V}
 gthresh,oneint=1e-18,twoint=1e-18                                               !,THROVL=1e-11,THRORTH=2.d-6
 THRESH,ENERGY=1d-16
 
 basis=aug-cc-pVQZ
 
 memory 3980, M
 
 print basis,orbitals=2,civector
 
 wf,charge=0,spin=3
                                                                                 !core
 
 rhf
 {rcisd;core,3,2,2,0,2,0,0,0;maxit,9999}
 {rccsd(t);core,3,2,2,0,2,0,0,0;maxit,9999}
 {uccsd(t);core,3,2,2,0,2,0,0,0;maxit,9999}
                                                                                 !{mrcc,method=CC(n),excitation=2,restart=2}
 uhf
                                                                                 !{mrcc,method=CC(n),excitation=2,restart=1}
 casscf
 {fciqmc;core,3,2,2,0,2,0,0,0}
 {fci;core,3,2,2,0,2,0,0,0}
 
 

 Variables initialized (778), CPU time= 0.01 sec
 Commands  initialized (547), CPU time= 0.01 sec, 516 directives.
 Default parameters read. Elapsed time= 0.09 sec

 Checking input...
 Passed
1


                                         ***  PROGRAM SYSTEM MOLPRO  ***
                         Copyright, University College Cardiff Consultants Limited, 2008

                                    Version 2012.1 linked Apr  1 2014 15:33:03


 **********************************************************************************************************************************
 LABEL *                                                                                 
 Linux-2.6.32-358.14.1.el6.x86_64/wob119(x86_64) 64 bit serial version                   DATE: 12-Jan-19          TIME: 09:07:25  
 **********************************************************************************************************************************

 SHA1:             960ce83de8be0427555cf121dea4debc26c720b5
 **********************************************************************************************************************************

 THRESHOLDS:

 ZERO    =  1.00D-12  ONEINT  =  1.00D-18  TWOINT  =  1.00D-18  PREFAC  =  1.00D-14  LOCALI  =  1.00D-09  EORDER  =  1.00D-04
 ENERGY  =  0.00D+00  ETEST   =  0.00D+00  EDENS   =  0.00D+00  THRDEDEF=  1.00D-06  GRADIENT=  1.00D-02  STEP    =  1.00D-03
 ORBITAL =  1.00D-05  CIVEC   =  1.00D-05  COEFF   =  1.00D-04  PRINTCI =  5.00D-02  PUNCHCI =  9.90D+01  OPTGRAD =  3.00D-04
 OPTENERG=  1.00D-06  OPTSTEP =  3.00D-04  THRGRAD =  1.00D-10  COMPRESS=  1.00D-11  VARMIN  =  1.00D-07  VARMAX  =  1.00D-03
 THRDOUB =  0.00D+00  THRDIV  =  1.00D-05  THRRED  =  1.00D-07  THRPSP  =  1.00D+00  THRDC   =  1.00D-10  THRCS   =  1.00D-10
 THRNRM  =  1.00D-08  THREQ   =  0.00D+00  THRDE   =  1.00D+00  THRREF  =  1.00D-05  SPARFAC =  1.00D+00  THRDLP  =  1.00D-07
 THRDIA  =  1.00D-10  THRDLS  =  1.00D-07  THRGPS  =  0.00D+00  THRKEX  =  0.00D+00  THRDIS  =  2.00D-01  THRVAR  =  1.00D-10
 THRLOC  =  1.00D-06  THRGAP  =  1.00D-06  THRLOCT = -1.00D+00  THRGAPT = -1.00D+00  THRORB  =  1.00D-06  THRMLTP =  0.00D+00
 THRCPQCI=  1.00D-10  KEXTA   =  0.00D+00  THRCOARS=  0.00D+00  SYMTOL  =  1.00D-06  GRADTOL =  1.00D-06  THROVL  =  1.00D-08
 THRORTH =  1.00D-08  GRID    =  1.00D-06  GRIDMAX =  1.00D-03  DTMAX   =  0.00D+00  THROCCDE=  1.00D-01  THROCCDE=  1.00D-01



 THRESHOLDS:

 ZERO    =  1.00D-12  ONEINT  =  1.00D-18  TWOINT  =  1.00D-18  PREFAC  =  1.00D-14  LOCALI  =  1.00D-09  EORDER  =  1.00D-04
 ENERGY  =  1.00D-16  ETEST   =  0.00D+00  EDENS   =  0.00D+00  THRDEDEF=  1.00D-06  GRADIENT=  1.00D-02  STEP    =  1.00D-03
 ORBITAL =  1.00D-05  CIVEC   =  1.00D-05  COEFF   =  1.00D-04  PRINTCI =  5.00D-02  PUNCHCI =  9.90D+01  OPTGRAD =  3.00D-04
 OPTENERG=  1.00D-06  OPTSTEP =  3.00D-04  THRGRAD =  1.00D-10  COMPRESS=  1.00D-11  VARMIN  =  1.00D-07  VARMAX  =  1.00D-03
 THRDOUB =  0.00D+00  THRDIV  =  1.00D-05  THRRED  =  1.00D-07  THRPSP  =  1.00D+00  THRDC   =  1.00D-10  THRCS   =  1.00D-10
 THRNRM  =  1.00D-08  THREQ   =  0.00D+00  THRDE   =  1.00D+00  THRREF  =  1.00D-05  SPARFAC =  1.00D+00  THRDLP  =  1.00D-07
 THRDIA  =  1.00D-10  THRDLS  =  1.00D-07  THRGPS  =  0.00D+00  THRKEX  =  0.00D+00  THRDIS  =  2.00D-01  THRVAR  =  1.00D-10
 THRLOC  =  1.00D-06  THRGAP  =  1.00D-06  THRLOCT = -1.00D+00  THRGAPT = -1.00D+00  THRORB  =  1.00D-06  THRMLTP =  0.00D+00
 THRCPQCI=  1.00D-10  KEXTA   =  0.00D+00  THRCOARS=  0.00D+00  SYMTOL  =  1.00D-06  GRADTOL =  1.00D-06  THROVL  =  1.00D-08
 THRORTH =  1.00D-08  GRID    =  1.00D-06  GRIDMAX =  1.00D-03  DTMAX   =  0.00D+00  THROCCDE=  1.00D-01  THROCCDE=  1.00D-01



 Variable memory set to    8000000 words,  buffer space   230000 words

 SETTING BASIS          =    AUG-CC-PVQZ


 Variable memory set to 3980000000 words,  buffer space   230000 words



 Recomputing integrals since basis changed


 Using spherical harmonics

 Library entry V      S aug-cc-pVQZ          selected for orbital group  1
 Library entry V      P aug-cc-pVQZ          selected for orbital group  1
 Library entry V      D aug-cc-pVQZ          selected for orbital group  1
 Library entry V      F aug-cc-pVQZ          selected for orbital group  1
 Library entry V      G aug-cc-pVQZ          selected for orbital group  1
 Library entry V      H aug-cc-pVQZ          selected for orbital group  1

1PROGRAM * SEWARD (Integral evaluation for generally contracted gaussian basis sets)     Author: Roland Lindh, 1990

 Geometry written to block  1 of record 700

 Orientation using atomic masses  
 Molecule type: Atom
 Symmetry elements: X,Y,Z
 Rotational constants:       0.0000000      0.0000000      0.0000000 GHz  (calculated with average atomic masses)

 Point group  D2h 



 ATOMIC COORDINATES

 NR  ATOM    CHARGE       X              Y              Z

   1  V      23.00    0.000000000    0.000000000    0.000000000


 BASIS DATA

   Nr Sym  Nuc  Type         Exponents   Contraction coefficients

    1.1 Ag   1  1s     10251780.000000     0.000002   -0.000001    0.000000   -0.000000   -0.000000   -0.000000
                                          -0.000000    0.000000
    2.1 Ag              1534920.000000     0.000015   -0.000009    0.000002   -0.000000   -0.000001   -0.000001
                                          -0.000001    0.000000
    3.1 Ag               349300.900000     0.000080   -0.000045    0.000009   -0.000002   -0.000004   -0.000006
                                          -0.000008    0.000000
    4.1 Ag                98942.050000     0.000340   -0.000190    0.000039   -0.000009   -0.000018   -0.000029
                                          -0.000030    0.000000
    5.1 Ag                32281.360000     0.001237   -0.000693    0.000144   -0.000033   -0.000062   -0.000097
                                          -0.000124    0.000000
    6.1 Ag                11655.270000     0.004026   -0.002262    0.000470   -0.000109   -0.000217   -0.000349
                                          -0.000351    0.000000
    7.1 Ag                 4546.548000     0.011919   -0.006725    0.001400   -0.000324   -0.000594   -0.000932
                                          -0.001246    0.000000
    8.1 Ag                 1886.185000     0.032154   -0.018373    0.003874   -0.000897   -0.001815   -0.002935
                                          -0.002787    0.000000
                            822.941700     0.077855   -0.045553    0.009766   -0.002262   -0.004065   -0.006334
                                          -0.009046    0.000000
                            374.343900     0.161637   -0.099970    0.022442   -0.005203   -0.010792   -0.017607
                                          -0.015230    0.000000
                            176.306900     0.263419   -0.181911    0.043901   -0.010191   -0.017523   -0.026968
                                          -0.044375    0.000000
                             85.406610     0.279999   -0.245874    0.068435   -0.015948   -0.035739   -0.059821
                                          -0.037935    0.000000
                             41.904350     0.147347   -0.163809    0.050965   -0.011936   -0.012631   -0.015456
                                          -0.085642    0.000000
                             19.155250     0.068264    0.179584   -0.085359    0.020183    0.013935    0.011030
                                           0.171564    0.000000
                              9.571617     0.119444    0.538955   -0.347480    0.086101    0.230505    0.423401
                                           0.219237    0.000000
                              4.780086     0.085076    0.374910   -0.367237    0.094879    0.093657    0.145409
                                           0.819039    0.000000
                              2.161860     0.011258    0.052003    0.238541   -0.073098    0.007829   -0.219714
                                          -2.439698    0.000000
                              1.042711    -0.000335   -0.003776    0.688818   -0.234963   -1.053854   -2.194329
                                           0.904868    0.000000
                              0.480282     0.000107    0.000169    0.350992   -0.250030    0.386559    2.857441
                                           1.706923    0.000000
                              0.117638    -0.000030   -0.000306    0.018261    0.302610    1.925783   -0.583248
                                          -4.675814    0.000000
                              0.056174     0.000047    0.000324   -0.005541    0.606163   -1.146429   -1.692845
                                           6.048734    0.000000
                              0.025661    -0.000000   -0.000037    0.002713    0.258357   -0.579909    1.642726
                                          -2.815697    1.000000
    9.1 Ag   1  1s            0.011720     1.000000
   10.1 Ag   1  3d0         238.009000     0.000350
                             71.189600     0.003130
                             27.394600     0.015478
                             11.717300     0.050829
                              5.324800     0.127548
                              2.516980     0.230447
                              1.190750     0.304058
                              0.551809     0.308366
                              0.246926     0.229022
                              0.105100     0.101360
                              0.041393     0.012961
   11.1 Ag   1  3d2+        238.009000     0.000350
                             71.189600     0.003130
                             27.394600     0.015478
                             11.717300     0.050829
                              5.324800     0.127548
                              2.516980     0.230447
                              1.190750     0.304058
                              0.551809     0.308366
                              0.246926     0.229022
                              0.105100     0.101360
                              0.041393     0.012961
   12.1 Ag   1  3d0         238.009000    -0.000370
                             71.189600    -0.003317
                             27.394600    -0.016474
                             11.717300    -0.054839
                              5.324800    -0.140839
                              2.516980    -0.239553
                              1.190750    -0.251910
                              0.551809    -0.026106
                              0.246926     0.387770
                              0.105100     0.486724
                              0.041393     0.134224
   13.1 Ag   1  3d2+        238.009000    -0.000370
                             71.189600    -0.003317
                             27.394600    -0.016474
                             11.717300    -0.054839
                              5.324800    -0.140839
                              2.516980    -0.239553
                              1.190750    -0.251910
                              0.551809    -0.026106
                              0.246926     0.387770
                              0.105100     0.486724
                              0.041393     0.134224
   14.1 Ag   1  3d0         238.009000    -0.000575
                             71.189600    -0.005157
                             27.394600    -0.025929
                             11.717300    -0.088059
                              5.324800    -0.231179
                              2.516980    -0.338352
                              1.190750    -0.085030
                              0.551809     0.626799
                              0.246926     0.383473
                              0.105100    -0.610262
                              0.041393    -0.284104
   15.1 Ag   1  3d2+        238.009000    -0.000575
                             71.189600    -0.005157
                             27.394600    -0.025929
                             11.717300    -0.088059
                              5.324800    -0.231179
                              2.516980    -0.338352
                              1.190750    -0.085030
                              0.551809     0.626799
                              0.246926     0.383473
                              0.105100    -0.610262
                              0.041393    -0.284104
   16.1 Ag   1  3d0         238.009000     0.000734
                             71.189600     0.007258
                             27.394600     0.033958
                             11.717300     0.129855
                              5.324800     0.331648
                              2.516980     0.356983
                              1.190750    -0.693439
                              0.551809    -0.576850
                              0.246926     1.228029
                              0.105100    -0.316741
                              0.041393    -0.494284
   17.1 Ag   1  3d2+        238.009000     0.000734
                             71.189600     0.007258
                             27.394600     0.033958
                             11.717300     0.129855
                              5.324800     0.331648
                              2.516980     0.356983
                              1.190750    -0.693439
                              0.551809    -0.576850
                              0.246926     1.228029
                              0.105100    -0.316741
                              0.041393    -0.494284
   18.1 Ag   1  3d0         238.009000     0.000000
                             71.189600     0.000000
                             27.394600     0.000000
                             11.717300     0.000000
                              5.324800     0.000000
                              2.516980     0.000000
                              1.190750     0.000000
                              0.551809     0.000000
                              0.246926     0.000000
                              0.105100     0.000000
                              0.041393     1.000000
   19.1 Ag   1  3d2+        238.009000     0.000000
                             71.189600     0.000000
                             27.394600     0.000000
                             11.717300     0.000000
                              5.324800     0.000000
                              2.516980     0.000000
                              1.190750     0.000000
                              0.551809     0.000000
                              0.246926     0.000000
                              0.105100     0.000000
                              0.041393     1.000000
   20.1 Ag   1  3d0           0.016300     1.000000
   21.1 Ag   1  3d2+          0.016300     1.000000
   22.1 Ag   1  5g0           2.153800     1.000000
   23.1 Ag   1  5g4+          2.153800     1.000000
   24.1 Ag   1  5g2+          2.153800     1.000000
   25.1 Ag   1  5g0           0.564500     1.000000
   26.1 Ag   1  5g4+          0.564500     1.000000
   27.1 Ag   1  5g2+          0.564500     1.000000
   28.1 Ag   1  5g0           0.193390     1.000000
   29.1 Ag   1  5g4+          0.193390     1.000000
   30.1 Ag   1  5g2+          0.193390     1.000000
    1.2 B3   1  2px       28563.320000     0.000011   -0.000004    0.000001    0.000001    0.000002   -0.000003
                                           0.000000
    2.2 B3u                6757.191000     0.000101   -0.000034    0.000008    0.000010    0.000020   -0.000029
                                           0.000000
    3.2 B3u                2194.652000     0.000592   -0.000202    0.000049    0.000060    0.000129   -0.000141
                                           0.000000
    4.2 B3u                 840.525700     0.002690   -0.000920    0.000221    0.000275    0.000536   -0.000773
                                           0.000000
    5.2 B3u                 357.666600     0.010063   -0.003459    0.000838    0.001033    0.002203   -0.002422
                                           0.000000
    6.2 B3u                 163.753400     0.031654   -0.011025    0.002656    0.003296    0.006428   -0.009267
                                           0.000000
    7.2 B3u                  79.144660     0.083478   -0.029732    0.007233    0.008896    0.019071   -0.020555
                                           0.000000
                             39.838580     0.177226   -0.065349    0.015808    0.019613    0.037712   -0.056485
                                           0.000000
                             20.585360     0.288398   -0.110527    0.027172    0.033318    0.074267   -0.071493
                                           0.000000
                             10.843070     0.329432   -0.134537    0.032801    0.041009    0.075260   -0.157791
                                           0.000000
                              5.777969     0.212130   -0.052437    0.012338    0.014959    0.060998   -0.021552
                                           0.000000
                              3.043170     0.055882    0.182216   -0.055418   -0.064256   -0.200976    0.237950
                                           0.000000
                              1.570239     0.002097    0.398018   -0.115604   -0.141817   -0.345343    1.131837
                                           0.000000
                              0.794975    -0.001471    0.389153   -0.139092   -0.173966   -0.501835   -1.089180
                                           0.000000
                              0.388980    -0.000948    0.172717    0.000682   -0.041132    1.143631   -1.125773
                                           0.000000
                              0.157327    -0.000055    0.018746    0.352009    0.563995    0.504487    2.168189
                                           0.000000
                              0.066566    -0.000013   -0.000594    0.542205    0.523896   -0.944103   -1.110263
                                           0.000000
                              0.027861     0.000002    0.000422    0.231358    0.035689   -0.075778   -0.184010
                                           1.000000
    8.2 B3   1  2px           0.011660     1.000000
    9.2 B3   1  4f1+          3.064800     1.000000
   10.2 B3   1  4f3+          3.064800     1.000000
   11.2 B3   1  4f1+          0.884000     1.000000
   12.2 B3   1  4f3+          0.884000     1.000000
   13.2 B3   1  4f1+          0.255000     1.000000
   14.2 B3   1  4f3+          0.255000     1.000000
   15.2 B3   1  4f1+          0.081850     1.000000
   16.2 B3   1  4f3+          0.081850     1.000000
   17.2 B3   1  6h1+          1.316500     1.000000
   18.2 B3   1  6h3+          1.316500     1.000000
   19.2 B3   1  6h5+          1.316500     1.000000
   20.2 B3   1  6h1+          0.471190     1.000000
   21.2 B3   1  6h3+          0.471190     1.000000
   22.2 B3   1  6h5+          0.471190     1.000000
    1.3 B2   1  2py       28563.320000     0.000011   -0.000004    0.000001    0.000001    0.000002   -0.000003
                                           0.000000
    2.3 B2u                6757.191000     0.000101   -0.000034    0.000008    0.000010    0.000020   -0.000029
                                           0.000000
    3.3 B2u                2194.652000     0.000592   -0.000202    0.000049    0.000060    0.000129   -0.000141
                                           0.000000
    4.3 B2u                 840.525700     0.002690   -0.000920    0.000221    0.000275    0.000536   -0.000773
                                           0.000000
    5.3 B2u                 357.666600     0.010063   -0.003459    0.000838    0.001033    0.002203   -0.002422
                                           0.000000
    6.3 B2u                 163.753400     0.031654   -0.011025    0.002656    0.003296    0.006428   -0.009267
                                           0.000000
    7.3 B2u                  79.144660     0.083478   -0.029732    0.007233    0.008896    0.019071   -0.020555
                                           0.000000
                             39.838580     0.177226   -0.065349    0.015808    0.019613    0.037712   -0.056485
                                           0.000000
                             20.585360     0.288398   -0.110527    0.027172    0.033318    0.074267   -0.071493
                                           0.000000
                             10.843070     0.329432   -0.134537    0.032801    0.041009    0.075260   -0.157791
                                           0.000000
                              5.777969     0.212130   -0.052437    0.012338    0.014959    0.060998   -0.021552
                                           0.000000
                              3.043170     0.055882    0.182216   -0.055418   -0.064256   -0.200976    0.237950
                                           0.000000
                              1.570239     0.002097    0.398018   -0.115604   -0.141817   -0.345343    1.131837
                                           0.000000
                              0.794975    -0.001471    0.389153   -0.139092   -0.173966   -0.501835   -1.089180
                                           0.000000
                              0.388980    -0.000948    0.172717    0.000682   -0.041132    1.143631   -1.125773
                                           0.000000
                              0.157327    -0.000055    0.018746    0.352009    0.563995    0.504487    2.168189
                                           0.000000
                              0.066566    -0.000013   -0.000594    0.542205    0.523896   -0.944103   -1.110263
                                           0.000000
                              0.027861     0.000002    0.000422    0.231358    0.035689   -0.075778   -0.184010
                                           1.000000
    8.3 B2   1  2py           0.011660     1.000000
    9.3 B2   1  4f1-          3.064800     1.000000
   10.3 B2   1  4f3-          3.064800     1.000000
   11.3 B2   1  4f1-          0.884000     1.000000
   12.3 B2   1  4f3-          0.884000     1.000000
   13.3 B2   1  4f1-          0.255000     1.000000
   14.3 B2   1  4f3-          0.255000     1.000000
   15.3 B2   1  4f1-          0.081850     1.000000
   16.3 B2   1  4f3-          0.081850     1.000000
   17.3 B2   1  6h1-          1.316500     1.000000
   18.3 B2   1  6h3-          1.316500     1.000000
   19.3 B2   1  6h5-          1.316500     1.000000
   20.3 B2   1  6h1-          0.471190     1.000000
   21.3 B2   1  6h3-          0.471190     1.000000
   22.3 B2   1  6h5-          0.471190     1.000000
    1.4 B1   1  3d2-        238.009000     0.000350   -0.000370   -0.000575    0.000734    0.000000
    2.4 B1g                  71.189600     0.003130   -0.003317   -0.005157    0.007258    0.000000
    3.4 B1g                  27.394600     0.015478   -0.016474   -0.025929    0.033958    0.000000
    4.4 B1g                  11.717300     0.050829   -0.054839   -0.088059    0.129855    0.000000
    5.4 B1g                   5.324800     0.127548   -0.140839   -0.231179    0.331648    0.000000
                              2.516980     0.230447   -0.239553   -0.338352    0.356983    0.000000
                              1.190750     0.304058   -0.251910   -0.085030   -0.693439    0.000000
                              0.551809     0.308366   -0.026106    0.626799   -0.576850    0.000000
                              0.246926     0.229022    0.387770    0.383473    1.228029    0.000000
                              0.105100     0.101360    0.486724   -0.610262   -0.316741    0.000000
                              0.041393     0.012961    0.134224   -0.284104   -0.494284    1.000000
    6.4 B1   1  3d2-          0.016300     1.000000
    7.4 B1   1  5g2-          2.153800     1.000000
    8.4 B1   1  5g4-          2.153800     1.000000
    9.4 B1   1  5g2-          0.564500     1.000000
   10.4 B1   1  5g4-          0.564500     1.000000
   11.4 B1   1  5g2-          0.193390     1.000000
   12.4 B1   1  5g4-          0.193390     1.000000
    1.5 B1   1  2pz       28563.320000     0.000011   -0.000004    0.000001    0.000001    0.000002   -0.000003
                                           0.000000
    2.5 B1u                6757.191000     0.000101   -0.000034    0.000008    0.000010    0.000020   -0.000029
                                           0.000000
    3.5 B1u                2194.652000     0.000592   -0.000202    0.000049    0.000060    0.000129   -0.000141
                                           0.000000
    4.5 B1u                 840.525700     0.002690   -0.000920    0.000221    0.000275    0.000536   -0.000773
                                           0.000000
    5.5 B1u                 357.666600     0.010063   -0.003459    0.000838    0.001033    0.002203   -0.002422
                                           0.000000
    6.5 B1u                 163.753400     0.031654   -0.011025    0.002656    0.003296    0.006428   -0.009267
                                           0.000000
    7.5 B1u                  79.144660     0.083478   -0.029732    0.007233    0.008896    0.019071   -0.020555
                                           0.000000
                             39.838580     0.177226   -0.065349    0.015808    0.019613    0.037712   -0.056485
                                           0.000000
                             20.585360     0.288398   -0.110527    0.027172    0.033318    0.074267   -0.071493
                                           0.000000
                             10.843070     0.329432   -0.134537    0.032801    0.041009    0.075260   -0.157791
                                           0.000000
                              5.777969     0.212130   -0.052437    0.012338    0.014959    0.060998   -0.021552
                                           0.000000
                              3.043170     0.055882    0.182216   -0.055418   -0.064256   -0.200976    0.237950
                                           0.000000
                              1.570239     0.002097    0.398018   -0.115604   -0.141817   -0.345343    1.131837
                                           0.000000
                              0.794975    -0.001471    0.389153   -0.139092   -0.173966   -0.501835   -1.089180
                                           0.000000
                              0.388980    -0.000948    0.172717    0.000682   -0.041132    1.143631   -1.125773
                                           0.000000
                              0.157327    -0.000055    0.018746    0.352009    0.563995    0.504487    2.168189
                                           0.000000
                              0.066566    -0.000013   -0.000594    0.542205    0.523896   -0.944103   -1.110263
                                           0.000000
                              0.027861     0.000002    0.000422    0.231358    0.035689   -0.075778   -0.184010
                                           1.000000
    8.5 B1   1  2pz           0.011660     1.000000
    9.5 B1   1  4f0           3.064800     1.000000
   10.5 B1   1  4f2+          3.064800     1.000000
   11.5 B1   1  4f0           0.884000     1.000000
   12.5 B1   1  4f2+          0.884000     1.000000
   13.5 B1   1  4f0           0.255000     1.000000
   14.5 B1   1  4f2+          0.255000     1.000000
   15.5 B1   1  4f0           0.081850     1.000000
   16.5 B1   1  4f2+          0.081850     1.000000
   17.5 B1   1  6h2+          1.316500     1.000000
   18.5 B1   1  6h4+          1.316500     1.000000
   19.5 B1   1  6h0           1.316500     1.000000
   20.5 B1   1  6h2+          0.471190     1.000000
   21.5 B1   1  6h4+          0.471190     1.000000
   22.5 B1   1  6h0           0.471190     1.000000
    1.6 B2   1  3d1+        238.009000     0.000350   -0.000370   -0.000575    0.000734    0.000000
    2.6 B2g                  71.189600     0.003130   -0.003317   -0.005157    0.007258    0.000000
    3.6 B2g                  27.394600     0.015478   -0.016474   -0.025929    0.033958    0.000000
    4.6 B2g                  11.717300     0.050829   -0.054839   -0.088059    0.129855    0.000000
    5.6 B2g                   5.324800     0.127548   -0.140839   -0.231179    0.331648    0.000000
                              2.516980     0.230447   -0.239553   -0.338352    0.356983    0.000000
                              1.190750     0.304058   -0.251910   -0.085030   -0.693439    0.000000
                              0.551809     0.308366   -0.026106    0.626799   -0.576850    0.000000
                              0.246926     0.229022    0.387770    0.383473    1.228029    0.000000
                              0.105100     0.101360    0.486724   -0.610262   -0.316741    0.000000
                              0.041393     0.012961    0.134224   -0.284104   -0.494284    1.000000
    6.6 B2   1  3d1+          0.016300     1.000000
    7.6 B2   1  5g1+          2.153800     1.000000
    8.6 B2   1  5g3+          2.153800     1.000000
    9.6 B2   1  5g1+          0.564500     1.000000
   10.6 B2   1  5g3+          0.564500     1.000000
   11.6 B2   1  5g1+          0.193390     1.000000
   12.6 B2   1  5g3+          0.193390     1.000000
    1.7 B3   1  3d1-        238.009000     0.000350   -0.000370   -0.000575    0.000734    0.000000
    2.7 B3g                  71.189600     0.003130   -0.003317   -0.005157    0.007258    0.000000
    3.7 B3g                  27.394600     0.015478   -0.016474   -0.025929    0.033958    0.000000
    4.7 B3g                  11.717300     0.050829   -0.054839   -0.088059    0.129855    0.000000
    5.7 B3g                   5.324800     0.127548   -0.140839   -0.231179    0.331648    0.000000
                              2.516980     0.230447   -0.239553   -0.338352    0.356983    0.000000
                              1.190750     0.304058   -0.251910   -0.085030   -0.693439    0.000000
                              0.551809     0.308366   -0.026106    0.626799   -0.576850    0.000000
                              0.246926     0.229022    0.387770    0.383473    1.228029    0.000000
                              0.105100     0.101360    0.486724   -0.610262   -0.316741    0.000000
                              0.041393     0.012961    0.134224   -0.284104   -0.494284    1.000000
    6.7 B3   1  3d1-          0.016300     1.000000
    7.7 B3   1  5g1-          2.153800     1.000000
    8.7 B3   1  5g3-          2.153800     1.000000
    9.7 B3   1  5g1-          0.564500     1.000000
   10.7 B3   1  5g3-          0.564500     1.000000
   11.7 B3   1  5g1-          0.193390     1.000000
   12.7 B3   1  5g3-          0.193390     1.000000
    1.8 Au   1  4f2-          3.064800     1.000000
    2.8 Au   1  4f2-          0.884000     1.000000
    3.8 Au   1  4f2-          0.255000     1.000000
    4.8 Au   1  4f2-          0.081850     1.000000
    5.8 Au   1  6h4-          1.316500     1.000000
    6.8 Au   1  6h2-          1.316500     1.000000
    7.8 Au   1  6h4-          0.471190     1.000000
    8.8 Au   1  6h2-          0.471190     1.000000

 NUCLEAR CHARGE:                   23
 NUMBER OF PRIMITIVE AOS:         279
 NUMBER OF SYMMETRY AOS:          217
 NUMBER OF CONTRACTIONS:          140   (  30Ag  +  22B3u +  22B2u +  12B1g +  22B1u +  12B2g +  12B3g +   8Au  )
 NUMBER OF CORE ORBITALS:           9   (   3Ag  +   2B3u +   2B2u +   0B1g +   2B1u +   0B2g +   0B3g +   0Au  )
 NUMBER OF VALENCE ORBITALS:        6   (   3Ag  +   0B3u +   0B2u +   1B1g +   0B1u +   1B2g +   1B3g +   0Au  )


 NUCLEAR REPULSION ENERGY    0.00000000

 EXTRA SYMMETRY OF AOS IN SYMMETRY 1:   1 1 1 1 1 1 1 1 1 2   3 2 3 2 3 2 3 2 3 2   3 4 5 6 4 5 6 4 5 6
 EXTRA SYMMETRY OF AOS IN SYMMETRY 2:   1 1 1 1 1 1 1 1 2 3   2 3 2 3 2 3 4 5 6 4   5 6
 EXTRA SYMMETRY OF AOS IN SYMMETRY 3:   1 1 1 1 1 1 1 1 2 3   2 3 2 3 2 3 4 5 6 4   5 6
 EXTRA SYMMETRY OF AOS IN SYMMETRY 4:   1 1 1 1 1 1 2 3 2 3   2 3
 EXTRA SYMMETRY OF AOS IN SYMMETRY 5:   1 1 1 1 1 1 1 1 2 3   2 3 2 3 2 3 4 5 6 4   5 6
 EXTRA SYMMETRY OF AOS IN SYMMETRY 6:   1 1 1 1 1 1 2 3 2 3   2 3
 EXTRA SYMMETRY OF AOS IN SYMMETRY 7:   1 1 1 1 1 1 2 3 2 3   2 3
 EXTRA SYMMETRY OF AOS IN SYMMETRY 8:   1 1 1 1 2 3 2 3

 Eigenvalues of metric

         1 0.139E-03 0.500E-01 0.504E-01 0.504E-01 0.450E+00 0.450E+00 0.450E+00 0.490E+00
         2 0.310E-04 0.408E-01 0.314E+00 0.314E+00 0.469E+00 0.561E+00 0.561E+00 0.561E+00
         3 0.310E-04 0.408E-01 0.314E+00 0.314E+00 0.469E+00 0.561E+00 0.561E+00 0.561E+00
         4 0.504E-01 0.450E+00 0.450E+00 0.490E+00 0.965E+00 0.965E+00 0.100E+01 0.101E+01
         5 0.310E-04 0.408E-01 0.314E+00 0.314E+00 0.469E+00 0.561E+00 0.561E+00 0.561E+00
         6 0.504E-01 0.450E+00 0.450E+00 0.490E+00 0.965E+00 0.965E+00 0.100E+01 0.101E+01
         7 0.504E-01 0.450E+00 0.450E+00 0.490E+00 0.965E+00 0.965E+00 0.100E+01 0.101E+01
         8 0.314E+00 0.561E+00 0.561E+00 0.647E+00 0.124E+01 0.144E+01 0.144E+01 0.180E+01


 Contracted 2-electron integrals neglected if value below      1.0D-18
 AO integral compression algorithm  1   Integral accuracy      1.0D-18

     64.750 MB (compressed) written to integral file ( 76.1%)


 NUMBER OF SORTED TWO-ELECTRON INTEGRALS:    6325833.     BUFFER LENGTH:  32768
 NUMBER OF SEGMENTS:   1  SEGMENT LENGTH:    6325833      RECORD LENGTH: 524288

 Memory used in sort:       6.88 MW

 SORT1 READ    10605667. AND WROTE     5079115. INTEGRALS IN     15 RECORDS. CPU TIME:     0.66 SEC, REAL TIME:     0.80 SEC
 SORT2 READ     5079115. AND WROTE     6325833. INTEGRALS IN    247 RECORDS. CPU TIME:     0.40 SEC, REAL TIME:     0.47 SEC

 FILE SIZES:   FILE 1:    72.8 MBYTE,  FILE 4:    62.9 MBYTE,   TOTAL:    135.7 MBYTE

 OPERATOR DM      FOR CENTER  0  COORDINATES:    0.000000    0.000000    0.000000


 **********************************************************************************************************************************
 DATASETS  * FILE   NREC   LENGTH (MB)   RECORD NAMES
              1      19       45.58       500      610      700      900      950      970     1000      129      960     1100   
                                          VAR    BASINP    GEOM    SYMINP    ZMAT    AOBASIS   BASIS     P2S    ABASIS      S 
                                         1400     1410     1200     1210     1080     1600     1650     1300     1700   
                                           T        V       H0       H01     AOSYM     SMH    MOLCAS    ERIS     OPER   

 PROGRAMS   *        TOTAL       INT
 CPU TIMES  *        11.11     10.93
 REAL TIME  *        12.68 SEC
 DISK USED  *       136.02 MB      
 **********************************************************************************************************************************

1PROGRAM * RHF-SCF (OPEN SHELL)       Authors: W. Meyer, H.-J. Werner


 NUMBER OF ELECTRONS:      13+   10-
 CONVERGENCE THRESHOLDS:    1.00E-06 (Density)    1.00E-17 (Energy)
 MAX. NUMBER OF ITERATIONS:       60
 INTERPOLATION TYPE:            DIIS
 INTERPOLATION STEPS:              2 (START)      1 (STEP)
 LEVEL SHIFTS:                 -0.30 (CLOSED)  0.00 (OPEN) 



 Orbital guess generated from atomic densities. Full valence occupancy:    6   2   2   1   2   1   1   0


 Molecular orbital dump at record        2100.2

 Initial alpha occupancy:   4   2   2   1   2   1   1   0
 Initial beta  occupancy:   4   2   2   0   2   0   0   0
 Wave function symmetry:    1

 ITERATION    DDIFF          GRAD             ENERGY        2-EL.EN.            DIPOLE MOMENTS         DIIS   ORB.
    1      0.000D+00      0.000D+00      -942.80940405    693.738771    0.00000    0.00000    0.00000    0    start
    2      0.000D+00      0.103D-01      -942.87563284    706.039326    0.00000    0.00000    0.00000    1    diag,B
    3      0.850D-02      0.889D-02      -942.88333144    703.861327    0.00000    0.00000    0.00000    2    diag,B
    4      0.149D-01      0.341D-02      -942.88629613    703.230126    0.00000    0.00000    0.00000    3    diag,B
    5      0.452D-02      0.506D-03      -942.88649984    703.174761    0.00000    0.00000    0.00000    4    diag,B
    6      0.201D-02      0.152D-03      -942.88653418    703.103571    0.00000    0.00000    0.00000    5    diag,B
    7      0.588D-03      0.525D-04      -942.88653991    703.069956    0.00000    0.00000    0.00000    6    fixocc
    8      0.887D-03      0.175D-04      -942.88654057    703.064906    0.00000    0.00000    0.00000    7    diag,B
    9      0.697D-03      0.561D-05      -942.88654063    703.062270    0.00000    0.00000    0.00000    8    diag,B
   10      0.113D-03      0.172D-05      -942.88654064    703.062239    0.00000    0.00000    0.00000    9    orth
   11      0.612D-04      0.493D-06      -942.88654064    703.062147    0.00000    0.00000    0.00000    9    diag,B
   12      0.276D-04      0.756D-07      -942.88654064    703.062171    0.00000    0.00000    0.00000    9    diag,B
   13      0.129D-05      0.743D-08      -942.88654064    703.062168    0.00000    0.00000    0.00000    9    diag,B
   14      0.460D-07      0.738D-09      -942.88654064    703.062168    0.00000    0.00000    0.00000    9    diag,B
   15      0.865D-08      0.563D-10      -942.88654064    703.062168    0.00000    0.00000    0.00000    0    orth

 Final alpha occupancy:   4   2   2   1   2   1   1   0
 Final beta  occupancy:   4   2   2   0   2   0   0   0

 !RHF STATE 1.1 Energy               -942.886540641663
 Nuclear energy                         0.00000000
 One-electron energy                -1294.41762474
 Two-electron energy                  351.53108410
 Virial quotient                       -0.99996006
 !RHF STATE 1.1 Dipole moment           0.00000000     0.00000000     0.00000000
 Dipole moment /Debye                   0.00000000     0.00000000     0.00000000

 ELECTRON ORBITALS
 =================


   Orb  Occ    Energy  Couls-En    Coefficients

                                   1 1s      1 1s      1 1s      1 1s      1 1s      1 1s      1 1s      1 1s      1 1s      1 3d0  
                                   1 3d2+    1 3d0     1 3d2+    1 3d0     1 3d2+    1 3d0     1 3d2+    1 3d0     1 3d2+    1 3d0  
                                   1 3d2+    1 5g0     1 5g4+    1 5g2+    1 5g0     1 5g4+    1 5g2+    1 5g0     1 5g4+    1 5g2+ 


   1.1   2  -201.5011 -465.8611  0.975736 -0.218947 -0.000482 -0.000150  0.000058 -0.000029  0.000016  0.000177 -0.000005  0.000000
                                -0.000000 -0.000000 -0.000000  0.000000  0.000000 -0.000000  0.000000  0.000000  0.000000 -0.000000
                                -0.000000 -0.000000 -0.000000 -0.000000  0.000000  0.000000 -0.000000 -0.000000 -0.000000  0.000000

   2.1   2   -23.8739  -88.2725  0.218957  0.975777  0.003953  0.000777 -0.000363  0.000174 -0.000094 -0.001108  0.000049  0.000000
                                 0.000000 -0.000000  0.000000 -0.000000 -0.000000  0.000000 -0.000000  0.000000 -0.000000 -0.000000
                                 0.000000 -0.000143 -0.000121  0.000000 -0.000007 -0.000006 -0.000000 -0.000002 -0.000002  0.000000

   3.1   2    -3.1828  -27.6110 -0.000679 -0.004514  0.995871 -0.023287  0.001870 -0.005588  0.000920  0.018971 -0.000725  0.000000
                                -0.000000  0.000000 -0.000000 -0.000000  0.000000 -0.000000  0.000000 -0.000000  0.000000  0.000000
                                -0.000000 -0.000631 -0.000534 -0.000000 -0.001012 -0.000856  0.000000  0.000024  0.000020 -0.000000

   4.1   2    -0.2305   -7.6290  0.000199  0.000578  0.009366  1.009485  0.017788 -0.002785  0.000066 -0.011108  0.001173  0.000000
                                 0.000000  0.000000  0.000000 -0.000000 -0.000000  0.000000  0.000000 -0.000000 -0.000000  0.000000
                                 0.000000 -0.000223 -0.000189 -0.000000  0.000085  0.000072 -0.000000  0.000457  0.000386  0.000000

   5.1   0     0.0240   -2.2776  0.034659  0.091930  0.463746  1.424420 -0.457813  0.191711 -0.033085 -3.539389  2.474208  0.000000
                                -0.000000  0.000000 -0.000000 -0.000000 -0.000000 -0.000000  0.000000 -0.000000  0.000000  0.000000
                                -0.000000  0.000025  0.000021 -0.000000  0.000337  0.000285  0.000000  0.000212  0.000179 -0.000000

   6.1   0     0.0496   -2.3167  0.000000  0.000000  0.000000  0.000000 -0.000000  0.000000 -0.000000 -0.000000 -0.000000  0.102776
                                -0.073896  0.092096 -0.066218 -0.050768  0.036502 -0.017554  0.012621 -0.280523  0.201697  0.942839
                                -0.677906 -0.000120  0.000142 -0.000134 -0.000224  0.000265 -0.000250 -0.000053  0.000063 -0.000059

                                   1 2px     1 2px     1 2px     1 2px     1 2px     1 2px     1 2px     1 2px     1 4f1+    1 4f3+ 
                                   1 4f1+    1 4f3+    1 4f1+    1 4f3+    1 4f1+    1 4f3+    1 6h1+    1 6h3+    1 6h5+    1 6h1+ 
                                   1 6h3+    1 6h5+ 

   1.2   2   -20.0217  -83.7344  0.999986  0.005644  0.002393 -0.002077  0.000083  0.000118 -0.000447 -0.000003  0.000313 -0.000404
                                 0.000108 -0.000139  0.000011 -0.000014 -0.000000  0.000000 -0.000016  0.000001 -0.000016  0.000002
                                -0.000000  0.000002

   2.2   2    -2.0192  -24.7375 -0.005676  0.999985 -0.020431  0.011322 -0.006304  0.000562  0.004046 -0.000131  0.001883 -0.002430
                                 0.003765 -0.004861  0.001453 -0.001875 -0.000113  0.000146  0.000277 -0.000054  0.000292 -0.000163
                                 0.000013 -0.000163

   3.2   0     0.0148   -3.1985  0.000849 -0.018088  1.565446 -1.001001 -0.008376  0.013179 -0.493458  0.971991 -0.000137  0.000177
                                 0.000394 -0.000508  0.001301 -0.001680  0.000470 -0.000607 -0.000027  0.000003 -0.000027  0.000016
                                -0.000012  0.000021

   4.2   0     0.0516   -3.6077  0.007746  0.089339  3.331352 -2.796432  0.020349  0.036516 -2.423742  1.476625  0.000199 -0.000257
                                -0.000572  0.000739 -0.001874  0.002420 -0.000883  0.001140  0.000039 -0.000004  0.000039 -0.000027
                                 0.000017 -0.000033

                                   1 2py     1 2py     1 2py     1 2py     1 2py     1 2py     1 2py     1 2py     1 4f1-    1 4f3- 
                                   1 4f1-    1 4f3-    1 4f1-    1 4f3-    1 4f1-    1 4f3-    1 6h1-    1 6h3-    1 6h5-    1 6h1- 
                                   1 6h3-    1 6h5- 

   1.3   2   -20.0217  -83.7344  0.999986  0.005644  0.002393 -0.002077  0.000083  0.000118 -0.000447 -0.000003  0.000313  0.000404
                                 0.000108  0.000139  0.000011  0.000014 -0.000000 -0.000000 -0.000016 -0.000001 -0.000016  0.000002
                                 0.000000  0.000002

   2.3   2    -2.0192  -24.7375 -0.005676  0.999985 -0.020431  0.011322 -0.006304  0.000562  0.004046 -0.000131  0.001883  0.002430
                                 0.003765  0.004861  0.001453  0.001875 -0.000113 -0.000146  0.000277  0.000054  0.000292 -0.000163
                                -0.000013 -0.000163

   3.3   0     0.0148   -3.1985  0.000849 -0.018088  1.565446 -1.001001 -0.008376  0.013179 -0.493458  0.971991 -0.000137 -0.000177
                                 0.000394  0.000508  0.001301  0.001680  0.000470  0.000607 -0.000027 -0.000003 -0.000027  0.000016
                                 0.000012  0.000021

   4.3   0     0.0516   -3.6077  0.007746  0.089339  3.331352 -2.796432  0.020349  0.036516 -2.423742  1.476625  0.000199  0.000257
                                -0.000572 -0.000739 -0.001874 -0.002420 -0.000883 -0.001140  0.000039  0.000004  0.000039 -0.000027
                                -0.000017 -0.000033

                                   1 3d2-    1 3d2-    1 3d2-    1 3d2-    1 3d2-    1 3d2-    1 5g2-    1 5g4-    1 5g2-    1 5g4- 
                                   1 5g2-    1 5g4- 

   1.4   +    -0.5111  -18.7315  0.995508 -0.074667  0.010095 -0.000459  0.002112  0.000099  0.001477  0.000000  0.002127  0.000000
                                 0.000405 -0.000000

   2.4   0     0.0506   -2.1540  0.013944  0.098228 -0.060495 -0.021539 -0.378542  1.192143 -0.000036  0.000000 -0.000027 -0.000000
                                -0.000025  0.000000

   3.4   0     0.1610   -3.5366 -0.225218 -0.207479  0.152043  0.057476  1.673001 -0.842252 -0.000160 -0.000000 -0.000112 -0.000000
                                -0.000107  0.000000

                                   1 2pz     1 2pz     1 2pz     1 2pz     1 2pz     1 2pz     1 2pz     1 2pz     1 4f0     1 4f2+ 
                                   1 4f0     1 4f2+    1 4f0     1 4f2+    1 4f0     1 4f2+    1 6h2+    1 6h4+    1 6h0     1 6h2+ 
                                   1 6h4+    1 6h0  

   1.5   2   -20.0217  -83.7344  0.999986  0.005644  0.002393 -0.002077  0.000083  0.000118 -0.000447 -0.000003 -0.000511 -0.000000
                                -0.000176  0.000000 -0.000018 -0.000000  0.000000  0.000000 -0.000000 -0.000012 -0.000020  0.000000
                                 0.000001  0.000003

   2.5   2    -2.0192  -24.7375 -0.005676  0.999985 -0.020431  0.011322 -0.006304  0.000562  0.004046 -0.000131 -0.003074  0.000000
                                -0.006149  0.000000 -0.002372  0.000000  0.000185 -0.000000 -0.000000  0.000173  0.000367  0.000000
                                -0.000115 -0.000200

   3.5   0     0.0148   -3.1985  0.000849 -0.018088  1.565446 -1.001001 -0.008376  0.013179 -0.493458  0.971991  0.000224  0.000000
                                -0.000643 -0.000000 -0.002125  0.000000 -0.000768 -0.000000 -0.000000 -0.000018 -0.000033 -0.000000
                                 0.000004  0.000029

   4.5   0     0.0516   -3.6077  0.007746  0.089339  3.331352 -2.796432  0.020349  0.036516 -2.423742  1.476625 -0.000325 -0.000000
                                 0.000934  0.000000  0.003061  0.000000  0.001443  0.000000  0.000000  0.000027  0.000049 -0.000000
                                -0.000008 -0.000045

                                   1 3d1+    1 3d1+    1 3d1+    1 3d1+    1 3d1+    1 3d1+    1 5g1+    1 5g3+    1 5g1+    1 5g3+ 
                                   1 5g1+    1 5g3+ 

   1.6   +    -0.5111  -18.7315  0.995508 -0.074667  0.010095 -0.000459  0.002112  0.000099 -0.000522 -0.001382 -0.000752 -0.001990
                                -0.000143 -0.000379

   2.6   0     0.0506   -2.1540  0.013944  0.098228 -0.060495 -0.021539 -0.378542  1.192143  0.000013  0.000034  0.000010  0.000025
                                 0.000009  0.000023

   3.6   0     0.1610   -3.5366 -0.225218 -0.207479  0.152043  0.057476  1.673001 -0.842252  0.000057  0.000150  0.000039  0.000104
                                 0.000038  0.000100

                                   1 3d1-    1 3d1-    1 3d1-    1 3d1-    1 3d1-    1 3d1-    1 5g1-    1 5g3-    1 5g1-    1 5g3- 
                                   1 5g1-    1 5g3- 

   1.7   +    -0.5111  -18.7315  0.995508 -0.074667  0.010095 -0.000459  0.002112  0.000099 -0.000522  0.001382 -0.000752  0.001990
                                -0.000143  0.000379

   2.7   0     0.0506   -2.1540  0.013944  0.098228 -0.060495 -0.021539 -0.378542  1.192143  0.000013 -0.000034  0.000010 -0.000025
                                 0.000009 -0.000023

   3.7   0     0.1610   -3.5366 -0.225218 -0.207479  0.152043  0.057476  1.673001 -0.842252  0.000057 -0.000150  0.000039 -0.000104
                                 0.000038 -0.000100

                                   1 4f2-    1 4f2-    1 4f2-    1 4f2-    1 6h4-    1 6h2-    1 6h4-    1 6h2- 

   1.8   0     0.3268   -3.9616 -0.001254  0.027112 -0.093834  1.042481  0.000000 -0.000000  0.000000  0.000000

   2.8   0     1.0029   -6.2164  0.025225  0.003582  1.148846 -0.508179  0.000000  0.000000  0.000000  0.000000

 HOMO      4.1    -0.230535 =      -6.2732eV
 LUMO      3.2     0.014792 =       0.4025eV
 LUMO-HOMO         0.245328 =       6.6757eV


 **********************************************************************************************************************************
 DATASETS  * FILE   NREC   LENGTH (MB)   RECORD NAMES
              1      19       45.58       500      610      700      900      950      970     1000      129      960     1100   
                                          VAR    BASINP    GEOM    SYMINP    ZMAT    AOBASIS   BASIS     P2S    ABASIS      S 
                                         1400     1410     1200     1210     1080     1600     1650     1300     1700   
                                           T        V       H0       H01     AOSYM     SMH    MOLCAS    ERIS     OPER   

              2       4        0.40       700     1000      520     2100   
                                         GEOM     BASIS   MCVARS     RHF  

 PROGRAMS   *        TOTAL       RHF       INT
 CPU TIMES  *        11.61      0.50     10.93
 REAL TIME  *        13.32 SEC
 DISK USED  *       136.02 MB      
 **********************************************************************************************************************************


1PROGRAM * CISD (Restricted open-shell CI(SD))     Authors: C. Hampel, H.-J. Werner, 1991, M. Deegan, P.J. Knowles, 1992


 Convergence thresholds:  THRVAR = 1.00D-08  THRDEN = 1.00D-16

 Number of core orbitals:           9 (   3   2   2   0   2   0   0   0 )
 Number of closed-shell orbitals:   1 (   1   0   0   0   0   0   0   0 )
 Number of active  orbitals:        3 (   0   0   0   1   0   1   1   0 )
 Number of external orbitals:     127 (  26  20  20  11  20  11  11   8 )

 Number of N-1 electron functions:               5
 Number of N-2 electron functions:              10
 Number of singly external CSFs:                88
 Number of doubly external CSFs:             15552
 Total number of CSFs:                       15640

 Molecular orbitals read from record     2100.2  Type=RHF/CANONICAL (state 1.1)

 Integral transformation finished. Total CPU:   0.10 sec, npass=  1  Memory used:   0.11 MW

 Starting RMP2 calculation

 Wavefunction is spin-projected

 ITER.      SQ.NORM     CORR.ENERGY   TOTAL ENERGY   ENERGY CHANGE        DEN1      VAR(S)    VAR(P)  DIIS     TIME
   1      1.04123114    -0.06395368  -942.95049432    -0.06395368    -0.00095900  0.20D-05  0.99D-03  1  1     0.13
   2      1.04413168    -0.06506924  -942.95160988    -0.00111556    -0.00001143  0.38D-07  0.13D-04  2  2     0.13
   3      1.04448024    -0.06516803  -942.95170867    -0.00009879    -0.00000006  0.31D-08  0.65D-07  3  3     0.13
   4      1.04448910    -0.06516911  -942.95170975    -0.00000108    -0.00000000  0.10D-09  0.60D-09  4  4     0.13
   5      1.04448918    -0.06516908  -942.95170973     0.00000002    -0.00000000  0.45D-11  0.65D-11  5  5     0.13
   6      1.04448918    -0.06516908  -942.95170972     0.00000000    -0.00000000  0.60D-13  0.11D-12  6  6     0.13
   7      1.04448917    -0.06516908  -942.95170972    -0.00000000    -0.00000000  0.19D-14  0.22D-14  6  1     0.14
   8      1.04448917    -0.06516908  -942.95170972     0.00000000    -0.00000000  0.68D-16  0.21D-16  6  2     0.14
   9      1.04448917    -0.06516908  -942.95170972    -0.00000000    -0.00000000  0.26D-17  0.27D-18  6  3     0.14
  10      1.04448917    -0.06516908  -942.95170972    -0.00000000    -0.00000000  0.64D-19  0.17D-19  6  4     0.14
  11      1.04448917    -0.06516908  -942.95170972    -0.00000000    -0.00000000  0.48D-21  0.27D-21  6  1     0.14
  12      1.04448917    -0.06516908  -942.95170972    -0.00000000    -0.00000000  0.26D-23  0.45D-23  6  5     0.14
  13      1.04448917    -0.06516908  -942.95170972     0.00000000    -0.00000000  0.33D-25  0.80D-25  6  6     0.15

 Norm of t1 vector:      0.01962585      S-energy:    -0.00037846      T1 diagnostic:  0.00007920
 Norm of t2 vector:      0.21000953      P-energy:    -0.06479062
                                         Alpha-Beta:  -0.03577888
                                         Alpha-Alpha: -0.02901175
                                         Beta-Beta:    0.00000000

 Spin contamination <S**2-Sz**2-Sz>     0.00000000
  Reference energy                   -942.886540641663
  RHF-RMP2 correlation energy          -0.065169082708
 !RHF-RMP2 energy                    -942.951709724371
 (NB above energy spin projected)

 Starting RCISD calculation

 ITER.      SQ.NORM     CORR.ENERGY   TOTAL ENERGY   ENERGY CHANGE        DEN1      VAR(S)    VAR(P)  DIIS     TIME
   1      1.05012945    -0.06824874  -942.95478938    -0.06824874    -0.00412103  0.99D-03  0.30D-02  1  1     0.32
   2      1.06680937    -0.07398748  -942.96052812    -0.00573874    -0.00062980  0.24D-03  0.46D-03  2  2     0.48
   3      1.07899087    -0.07579935  -942.96233999    -0.00181187    -0.00006309  0.28D-04  0.37D-04  3  3     0.65
   4      1.08249904    -0.07629564  -942.96283629    -0.00049630    -0.00001515  0.95D-05  0.74D-05  4  4     0.82
   5      1.08351043    -0.07635518  -942.96289582    -0.00005953    -0.00000506  0.34D-05  0.26D-05  5  5     0.99
   6      1.08367581    -0.07637578  -942.96291643    -0.00002061    -0.00000122  0.55D-06  0.71D-06  6  6     1.16
   7      1.08373329    -0.07638643  -942.96292707    -0.00001065    -0.00000024  0.65D-07  0.16D-06  6  1     1.33
   8      1.08376684    -0.07638904  -942.96292969    -0.00000261    -0.00000005  0.20D-07  0.27D-07  6  2     1.49
   9      1.08377523    -0.07638948  -942.96293012    -0.00000043    -0.00000001  0.90D-08  0.51D-08  6  3     1.65
  10      1.08377888    -0.07638954  -942.96293018    -0.00000006    -0.00000000  0.34D-08  0.11D-08  6  4     1.82
  11      1.08378351    -0.07638955  -942.96293019    -0.00000001    -0.00000000  0.96D-09  0.36D-09  6  5     1.98
  12      1.08378992    -0.07638956  -942.96293020    -0.00000000    -0.00000000  0.18D-09  0.51D-10  6  2     2.14
  13      1.08379180    -0.07638956  -942.96293020    -0.00000000    -0.00000000  0.70D-10  0.14D-10  6  6     2.31
  14      1.08379179    -0.07638956  -942.96293020    -0.00000000    -0.00000000  0.18D-10  0.34D-11  6  1     2.48
  15      1.08379136    -0.07638956  -942.96293020    -0.00000000    -0.00000000  0.37D-11  0.11D-11  6  3     2.65
  16      1.08379104    -0.07638956  -942.96293020    -0.00000000    -0.00000000  0.51D-12  0.33D-12  6  4     2.82
  17      1.08379101    -0.07638956  -942.96293020    -0.00000000    -0.00000000  0.81D-13  0.13D-12  6  5     2.99
  18      1.08379108    -0.07638956  -942.96293020    -0.00000000    -0.00000000  0.49D-14  0.28D-13  6  2     3.16
  19      1.08379112    -0.07638956  -942.96293020    -0.00000000    -0.00000000  0.91D-14  0.64D-14  6  6     3.33
  20      1.08379113    -0.07638956  -942.96293020    -0.00000000    -0.00000000  0.51D-14  0.25D-14  6  1     3.49
  21      1.08379114    -0.07638956  -942.96293020     0.00000000    -0.00000000  0.16D-14  0.58D-15  6  3     3.66

 Norm of t1 vector:      0.07450146      S-energy:    -0.00057063      T1 diagnostic:  0.02120934
 Norm of t2 vector:      0.27971535      P-energy:    -0.07581893
                                         Alpha-Beta:  -0.04311614
                                         Alpha-Alpha: -0.03270279
                                         Beta-Beta:    0.00000000

 Doubles amplitudes (print threshold =  0.500E-01):

         I         J         SYM. A    SYM. B    A         B      T(IJ, AB) [Alpha-Beta]

         1         1         2         2         2         2     -0.05529763
         1         1         3         3         2         2     -0.05529763
         1         1         5         5         2         2     -0.05529763

 Spin contamination <S**2-Sz**2-Sz>     0.00000000
 

 RESULTS
 =======

  Reference energy                   -942.886540641663
  RCISD singles energy                 -0.000570631201
  RCISD pair energy                    -0.075818926699
  RCISD correlation energy             -0.076389557900
 
 !RHF-RCISD energy                   -942.962930199563

 Program statistics:

 Available memory in ccsd:              3979999732
 Min. memory needed in ccsd:                123872
 Max. memory used in ccsd:                  136460
 Max. memory used in cckext:                153552 (21 integral passes)
 Max. memory used in cckint:                110386 ( 1 integral passes)



 **********************************************************************************************************************************
 DATASETS  * FILE   NREC   LENGTH (MB)   RECORD NAMES
              1      19       45.58       500      610      700      900      950      970     1000      129      960     1100   
                                          VAR    BASINP    GEOM    SYMINP    ZMAT    AOBASIS   BASIS     P2S    ABASIS      S 
                                         1400     1410     1200     1210     1080     1600     1650     1300     1700   
                                           T        V       H0       H01     AOSYM     SMH    MOLCAS    ERIS     OPER   

              2       4        0.40       700     1000      520     2100   
                                         GEOM     BASIS   MCVARS     RHF  

 PROGRAMS   *        TOTAL     RCISD       RHF       INT
 CPU TIMES  *        15.31      3.70      0.50     10.93
 REAL TIME  *        18.66 SEC
 DISK USED  *       136.02 MB      
 **********************************************************************************************************************************


1PROGRAM * CCSD (Restricted open-shell coupled cluster)     Authors: C. Hampel, H.-J. Werner, 1991, M. Deegan, P.J. Knowles, 1992


 Convergence thresholds:  THRVAR = 1.00D-08  THRDEN = 1.00D-16

 CCSD(T)     terms to be evaluated (factor= 1.000)


 Number of core orbitals:           9 (   3   2   2   0   2   0   0   0 )
 Number of closed-shell orbitals:   1 (   1   0   0   0   0   0   0   0 )
 Number of active  orbitals:        3 (   0   0   0   1   0   1   1   0 )
 Number of external orbitals:     127 (  26  20  20  11  20  11  11   8 )

 Memory could be reduced to 3.26 Mwords without degradation in triples

 Number of N-1 electron functions:               5
 Number of N-2 electron functions:              10
 Number of singly external CSFs:                88
 Number of doubly external CSFs:             15552
 Total number of CSFs:                       15640

 Molecular orbitals read from record     2100.2  Type=RHF/CANONICAL (state 1.1)

 Integral transformation finished. Total CPU:   0.15 sec, npass=  1  Memory used:   0.67 MW

 Starting RMP2 calculation

 Wavefunction is spin-projected

 ITER.      SQ.NORM     CORR.ENERGY   TOTAL ENERGY   ENERGY CHANGE        DEN1      VAR(S)    VAR(P)  DIIS     TIME
   1      1.04123114    -0.06395368  -942.95049432    -0.06395368    -0.00095900  0.20D-05  0.99D-03  1  1     0.18
   2      1.04413168    -0.06506924  -942.95160988    -0.00111556    -0.00001143  0.38D-07  0.13D-04  2  2     0.18
   3      1.04448024    -0.06516803  -942.95170867    -0.00009879    -0.00000006  0.31D-08  0.65D-07  3  3     0.18
   4      1.04448910    -0.06516911  -942.95170975    -0.00000108    -0.00000000  0.10D-09  0.60D-09  4  4     0.18
   5      1.04448918    -0.06516908  -942.95170973     0.00000002    -0.00000000  0.45D-11  0.65D-11  5  5     0.18
   6      1.04448918    -0.06516908  -942.95170972     0.00000000    -0.00000000  0.60D-13  0.11D-12  6  6     0.18
   7      1.04448917    -0.06516908  -942.95170972    -0.00000000    -0.00000000  0.19D-14  0.22D-14  6  1     0.18
   8      1.04448917    -0.06516908  -942.95170972     0.00000000    -0.00000000  0.68D-16  0.21D-16  6  2     0.18
   9      1.04448917    -0.06516908  -942.95170972    -0.00000000    -0.00000000  0.26D-17  0.27D-18  6  3     0.18
  10      1.04448917    -0.06516908  -942.95170972    -0.00000000    -0.00000000  0.64D-19  0.17D-19  6  4     0.19
  11      1.04448917    -0.06516908  -942.95170972    -0.00000000    -0.00000000  0.48D-21  0.27D-21  6  1     0.19
  12      1.04448917    -0.06516908  -942.95170972    -0.00000000    -0.00000000  0.26D-23  0.45D-23  6  5     0.19
  13      1.04448917    -0.06516908  -942.95170972     0.00000000    -0.00000000  0.33D-25  0.80D-25  6  6     0.19

 Norm of t1 vector:      0.01962585      S-energy:    -0.00037846      T1 diagnostic:  0.00007920
 Norm of t2 vector:      0.21000953      P-energy:    -0.06479062
                                         Alpha-Beta:  -0.03577888
                                         Alpha-Alpha: -0.02901175
                                         Beta-Beta:    0.00000000

 Spin contamination <S**2-Sz**2-Sz>     0.00000000
  Reference energy                   -942.886540641663
  RHF-RMP2 correlation energy          -0.065169082708
 !RHF-RMP2 energy                    -942.951709724371
 (NB above energy spin projected)

 Starting RCCSD calculation

 ITER.      SQ.NORM     CORR.ENERGY   TOTAL ENERGY   ENERGY CHANGE        DEN1      VAR(S)    VAR(P)  DIIS     TIME
   1      1.05280841    -0.06937461  -942.95591526    -0.06937461    -0.00455532  0.92D-03  0.35D-02  1  1     0.40
   2      1.07257774    -0.07494087  -942.96148151    -0.00556625    -0.00075543  0.27D-03  0.59D-03  2  2     0.62
   3      1.08801008    -0.07767573  -942.96421637    -0.00273486    -0.00006363  0.17D-04  0.44D-04  3  3     0.83
   4      1.09231034    -0.07827532  -942.96481596    -0.00059959    -0.00001153  0.78D-06  0.80D-05  4  4     1.04
   5      1.09338399    -0.07838409  -942.96492473    -0.00010876    -0.00000393  0.10D-06  0.28D-05  5  5     1.25
   6      1.09363037    -0.07839423  -942.96493487    -0.00001015    -0.00000124  0.81D-07  0.87D-06  6  6     1.46
   7      1.09369827    -0.07840010  -942.96494074    -0.00000587    -0.00000035  0.24D-07  0.26D-06  6  1     1.68
   8      1.09370856    -0.07840207  -942.96494271    -0.00000197    -0.00000005  0.31D-08  0.42D-07  6  2     1.90
   9      1.09371307    -0.07840257  -942.96494321    -0.00000050    -0.00000001  0.18D-08  0.76D-08  6  3     2.11
  10      1.09372299    -0.07840409  -942.96494473    -0.00000152    -0.00000000  0.46D-09  0.10D-08  6  4     2.31
  11      1.09373633    -0.07840604  -942.96494668    -0.00000194    -0.00000000  0.45D-10  0.15D-09  6  6     2.53
  12      1.09374184    -0.07840695  -942.96494759    -0.00000091    -0.00000000  0.95D-12  0.21D-10  6  5     2.75
  13      1.09374251    -0.07840705  -942.96494769    -0.00000010    -0.00000000  0.74D-12  0.43D-11  6  4     2.96
  14      1.09374211    -0.07840700  -942.96494764     0.00000005    -0.00000000  0.24D-12  0.64D-12  6  1     3.17
  15      1.09374174    -0.07840694  -942.96494758     0.00000006    -0.00000000  0.16D-13  0.99D-13  6  2     3.38
  16      1.09374164    -0.07840693  -942.96494757     0.00000001    -0.00000000  0.14D-14  0.13D-13  6  3     3.59
  17      1.09374163    -0.07840693  -942.96494757    -0.00000000    -0.00000000  0.48D-15  0.29D-14  6  6     3.80
  18      1.09374164    -0.07840693  -942.96494757    -0.00000000    -0.00000000  0.63D-16  0.40D-15  6  5     4.01
  19      1.09374164    -0.07840693  -942.96494757    -0.00000000    -0.00000000  0.12D-16  0.83D-16  6  4     4.23
  20      1.09374165    -0.07840693  -942.96494757    -0.00000000    -0.00000000  0.11D-17  0.12D-16  6  1     4.44
  21      1.09374165    -0.07840693  -942.96494757    -0.00000000    -0.00000000  0.92D-18  0.38D-17  6  2     4.65
  22      1.09374165    -0.07840693  -942.96494757    -0.00000000    -0.00000000  0.38D-18  0.13D-17  6  3     4.87
  23      1.09374165    -0.07840693  -942.96494757     0.00000000    -0.00000000  0.26D-19  0.16D-18  6  6     5.07
  24      1.09374165    -0.07840693  -942.96494757     0.00000000    -0.00000000  0.13D-20  0.30D-19  6  5     5.29
  25      1.09374165    -0.07840693  -942.96494757     0.00000000    -0.00000000  0.70D-21  0.67D-20  6  4     5.51
  26      1.09374165    -0.07840693  -942.96494757    -0.00000000    -0.00000000  0.26D-21  0.15D-20  6  6     5.72
  27      1.09374165    -0.07840693  -942.96494757    -0.00000000    -0.00000000  0.45D-22  0.27D-21  6  1     5.93
  28      1.09374165    -0.07840693  -942.96494757    -0.00000000    -0.00000000  0.35D-22  0.21D-21  6  2     6.14
  29      1.09374165    -0.07840693  -942.96494757     0.00000000    -0.00000000  0.14D-22  0.11D-21  6  3     6.36

 Norm of t1 vector:      0.08561480      S-energy:    -0.00061531      T1 diagnostic:  0.02459977
                                                                       D1 diagnostic:  0.04863443
 Norm of t2 vector:      0.29395877      P-energy:    -0.07779163
                                         Alpha-Beta:  -0.04471928
                                         Alpha-Alpha: -0.03307235
                                         Beta-Beta:    0.00000000

 Singles amplitudes (print threshold =  0.500E-01):

         I         SYM. A    A   T(IA) [Alpha-Alpha]

         1         1         6      0.05317744

 Doubles amplitudes (print threshold =  0.500E-01):

         I         J         SYM. A    SYM. B    A         B      T(IJ, AB) [Alpha-Beta]

         1         1         2         2         1         2      0.05152706
         1         1         2         2         2         1      0.05152706
         1         1         2         2         2         2     -0.05913929
         1         1         3         3         1         2      0.05152706
         1         1         3         3         2         1      0.05152706
         1         1         3         3         2         2     -0.05913929
         1         1         5         5         1         2      0.05152706
         1         1         5         5         2         1      0.05152706
         1         1         5         5         2         2     -0.05913929

 Spin contamination <S**2-Sz**2-Sz>     0.00000000

 Memory could be reduced to 3.50 Mwords without degradation in triples
 

 RESULTS
 =======

  Reference energy                   -942.886540641663
  RCCSD singles energy                 -0.000615305094
  RCCSD pair energy                    -0.077791625115
  RCCSD correlation energy             -0.078406930209
  Triples (T) contribution             -0.003040808142
  Total correlation energy             -0.081447738351
 
  RHF-RCCSD energy                   -942.964947571872
  RHF-RCCSD[T] energy                -942.968019562456
  RHF-RCCSD-T energy                 -942.967954447097
 !RHF-RCCSD(T) energy                -942.967988380014

 Program statistics:

 Available memory in ccsd:              3979999732
 Min. memory needed in ccsd:                123872
 Max. memory used in ccsd:                  136460
 Max. memory used in cckext:                153552 (29 integral passes)
 Max. memory used in cckint:                674694 ( 1 integral passes)



 **********************************************************************************************************************************
 DATASETS  * FILE   NREC   LENGTH (MB)   RECORD NAMES
              1      19       45.58       500      610      700      900      950      970     1000      129      960     1100   
                                          VAR    BASINP    GEOM    SYMINP    ZMAT    AOBASIS   BASIS     P2S    ABASIS      S 
                                         1400     1410     1200     1210     1080     1600     1650     1300     1700   
                                           T        V       H0       H01     AOSYM     SMH    MOLCAS    ERIS     OPER   

              2       4        0.40       700     1000      520     2100   
                                         GEOM     BASIS   MCVARS     RHF  

 PROGRAMS   *        TOTAL  RCCSD(T)     RCISD       RHF       INT
 CPU TIMES  *        21.97      6.66      3.70      0.50     10.93
 REAL TIME  *        26.89 SEC
 DISK USED  *       136.02 MB      
 **********************************************************************************************************************************


1PROGRAM * CCSD (Unrestricted open-shell coupled cluster)     Authors: C. Hampel, H.-J. Werner, 1991, M. Deegan, P.J. Knowles, 1992


 Convergence thresholds:  THRVAR = 1.00D-08  THRDEN = 1.00D-16

 CCSD(T)     terms to be evaluated (factor= 1.000)


 Number of core orbitals:           9 (   3   2   2   0   2   0   0   0 )
 Number of closed-shell orbitals:   1 (   1   0   0   0   0   0   0   0 )
 Number of active  orbitals:        3 (   0   0   0   1   0   1   1   0 )
 Number of external orbitals:     127 (  26  20  20  11  20  11  11   8 )

 Memory could be reduced to 3.26 Mwords without degradation in triples

 Number of N-1 electron functions:               5
 Number of N-2 electron functions:              10
 Number of singly external CSFs:                88
 Number of doubly external CSFs:             15552
 Total number of CSFs:                       15640

 Molecular orbitals read from record     2100.2  Type=RHF/CANONICAL (state 1.1)

 Integral transformation finished. Total CPU:   0.14 sec, npass=  1  Memory used:   0.67 MW

 Starting RMP2 calculation

 ITER.      SQ.NORM     CORR.ENERGY   TOTAL ENERGY   ENERGY CHANGE        DEN1      VAR(S)    VAR(P)  DIIS     TIME
   1      1.04153171    -0.06401426  -942.95055491    -0.06401426    -0.00097974  0.30D-04  0.99D-03  1  1     0.18
   2      1.04454258    -0.06515678  -942.95169743    -0.00114252    -0.00001204  0.97D-06  0.13D-04  2  2     0.18
   3      1.04491297    -0.06525939  -942.95180003    -0.00010261    -0.00000008  0.27D-07  0.67D-07  3  3     0.19
   4      1.04492390    -0.06526068  -942.95180132    -0.00000129    -0.00000000  0.12D-08  0.57D-09  4  4     0.19
   5      1.04492413    -0.06526064  -942.95180128     0.00000004    -0.00000000  0.42D-10  0.47D-11  5  5     0.19
   6      1.04492418    -0.06526064  -942.95180128    -0.00000001    -0.00000000  0.98D-12  0.14D-12  6  6     0.19
   7      1.04492418    -0.06526064  -942.95180128     0.00000000    -0.00000000  0.11D-13  0.31D-14  6  1     0.19
   8      1.04492418    -0.06526064  -942.95180128    -0.00000000    -0.00000000  0.13D-15  0.67D-16  6  2     0.19
   9      1.04492418    -0.06526064  -942.95180128     0.00000000    -0.00000000  0.37D-17  0.13D-17  6  3     0.19
  10      1.04492418    -0.06526064  -942.95180128     0.00000000    -0.00000000  0.10D-18  0.22D-19  6  4     0.19
  11      1.04492418    -0.06526064  -942.95180128    -0.00000000    -0.00000000  0.17D-20  0.58D-21  6  5     0.20
  12      1.04492418    -0.06526064  -942.95180128    -0.00000000    -0.00000000  0.28D-22  0.13D-22  6  6     0.20
  13      1.04492418    -0.06526064  -942.95180128     0.00000000    -0.00000000  0.85D-24  0.34D-24  6  1     0.20

 Norm of t1 vector:      0.03051790      S-energy:    -0.00053413      T1 diagnostic:  0.00012642
 Norm of t2 vector:      0.20974470      P-energy:    -0.06472651
                                         Alpha-Beta:  -0.03573409
                                         Alpha-Alpha: -0.02899243
                                         Beta-Beta:    0.00000000

 Spin contamination <S**2-Sz**2-Sz>     0.01381468
  Reference energy                   -942.886540641663
  RHF-RMP2 correlation energy          -0.065260642110
 !RHF-RMP2 energy                    -942.951801283773

 Starting UCCSD calculation

 ITER.      SQ.NORM     CORR.ENERGY   TOTAL ENERGY   ENERGY CHANGE        DEN1      VAR(S)    VAR(P)  DIIS     TIME
   1      1.05289443    -0.06936979  -942.95591043    -0.06936979    -0.00457559  0.89D-03  0.35D-02  1  1     0.41
   2      1.07281325    -0.07498059  -942.96152123    -0.00561080    -0.00076403  0.26D-03  0.60D-03  2  2     0.63
   3      1.08831958    -0.07772697  -942.96426762    -0.00274638    -0.00006787  0.16D-04  0.47D-04  3  3     0.83
   4      1.09276702    -0.07835071  -942.96489135    -0.00062373    -0.00001282  0.83D-06  0.88D-05  4  4     1.04
   5      1.09385148    -0.07846348  -942.96500412    -0.00011277    -0.00000480  0.16D-06  0.34D-05  5  5     1.25
   6      1.09413862    -0.07847933  -942.96501997    -0.00001585    -0.00000156  0.11D-06  0.11D-05  6  6     1.46
   7      1.09425620    -0.07849060  -942.96503124    -0.00001126    -0.00000044  0.38D-07  0.32D-06  6  1     1.68
   8      1.09427479    -0.07849239  -942.96503303    -0.00000179    -0.00000008  0.54D-08  0.57D-07  6  2     1.89
   9      1.09428338    -0.07849288  -942.96503352    -0.00000049    -0.00000002  0.31D-08  0.13D-07  6  3     2.10
  10      1.09430006    -0.07849515  -942.96503579    -0.00000226    -0.00000000  0.73D-09  0.29D-08  6  4     2.31
  11      1.09432160    -0.07849808  -942.96503872    -0.00000293    -0.00000000  0.46D-10  0.69D-09  6  6     2.52
  12      1.09433096    -0.07849949  -942.96504013    -0.00000142    -0.00000000  0.13D-10  0.22D-09  6  5     2.73
  13      1.09433126    -0.07849955  -942.96504020    -0.00000006    -0.00000000  0.13D-10  0.84D-10  6  1     2.94
  14      1.09432836    -0.07849912  -942.96503977     0.00000043    -0.00000000  0.25D-11  0.21D-10  6  2     3.15
  15      1.09432726    -0.07849892  -942.96503956     0.00000021    -0.00000000  0.20D-12  0.82D-11  6  3     3.36
  16      1.09432742    -0.07849891  -942.96503955     0.00000001    -0.00000000  0.10D-12  0.32D-11  6  4     3.57
  17      1.09432790    -0.07849896  -942.96503961    -0.00000005    -0.00000000  0.56D-13  0.11D-11  6  6     3.79
  18      1.09432809    -0.07849899  -942.96503963    -0.00000002    -0.00000000  0.42D-14  0.41D-12  6  5     4.00
  19      1.09432812    -0.07849899  -942.96503963     0.00000000    -0.00000000  0.56D-14  0.11D-12  6  1     4.22
  20      1.09432813    -0.07849899  -942.96503963     0.00000000    -0.00000000  0.13D-14  0.31D-13  6  2     4.43
  21      1.09432816    -0.07849899  -942.96503963    -0.00000000    -0.00000000  0.33D-15  0.12D-13  6  3     4.64
  22      1.09432818    -0.07849899  -942.96503963    -0.00000000    -0.00000000  0.28D-15  0.39D-14  6  4     4.85
  23      1.09432818    -0.07849899  -942.96503963     0.00000000    -0.00000000  0.54D-16  0.14D-14  6  6     5.07
  24      1.09432817    -0.07849899  -942.96503963     0.00000000    -0.00000000  0.22D-16  0.64D-15  6  5     5.28
  25      1.09432817    -0.07849899  -942.96503963     0.00000000    -0.00000000  0.16D-16  0.78D-16  6  3     5.49
  26      1.09432818    -0.07849899  -942.96503963    -0.00000000    -0.00000000  0.51D-17  0.25D-16  6  1     5.71
  27      1.09432818    -0.07849899  -942.96503963    -0.00000000    -0.00000000  0.35D-18  0.49D-17  6  2     5.92
  28      1.09432818    -0.07849899  -942.96503963    -0.00000000    -0.00000000  0.74D-19  0.96D-18  6  3     6.13
  29      1.09432818    -0.07849899  -942.96503963     0.00000000    -0.00000000  0.47D-19  0.27D-18  6  4     6.35
  30      1.09432818    -0.07849899  -942.96503963     0.00000000    -0.00000000  0.15D-20  0.28D-19  6  6     6.55
  31      1.09432818    -0.07849899  -942.96503963     0.00000000    -0.00000000  0.87D-21  0.52D-20  6  5     6.76
  32      1.09432818    -0.07849899  -942.96503963     0.00000000    -0.00000000  0.50D-21  0.20D-20  6  2     6.97
  33      1.09432818    -0.07849899  -942.96503963    -0.00000000    -0.00000000  0.85D-22  0.62D-21  6  1     7.18
  34      1.09432818    -0.07849899  -942.96503963    -0.00000000    -0.00000000  0.16D-22  0.26D-21  6  3     7.39
  35      1.09432818    -0.07849899  -942.96503963    -0.00000000    -0.00000000  0.59D-23  0.17D-21  6  4     7.60
  36      1.09432818    -0.07849899  -942.96503963    -0.00000000    -0.00000000  0.24D-23  0.15D-21  6  6     7.81
  37      1.09432818    -0.07849899  -942.96503963     0.00000000    -0.00000000  0.22D-23  0.14D-21  6  5     8.03
  38      1.09432818    -0.07849899  -942.96503963     0.00000000    -0.00000000  0.12D-23  0.88D-22  6  1     8.24
  39      1.09432818    -0.07849899  -942.96503963     0.00000000    -0.00000000  0.71D-24  0.56D-22  6  3     8.45

 Norm of t1 vector:      0.08727523      S-energy:    -0.00067041      T1 diagnostic:  0.02458591
                                                                       D1 diagnostic:  0.04859776
 Norm of t2 vector:      0.29446768      P-energy:    -0.07782858
                                         Alpha-Beta:  -0.04462542
                                         Alpha-Alpha: -0.03320316
                                         Beta-Beta:    0.00000000

 Singles amplitudes (print threshold =  0.500E-01):

         I         SYM. A    A   T(IA) [Alpha-Alpha]

         1         1         6      0.05522872

 Doubles amplitudes (print threshold =  0.500E-01):

         I         J         SYM. A    SYM. B    A         B      T(IJ, AB) [Alpha-Beta]

         1         1         2         2         1         2      0.05107585
         1         1         2         2         2         1      0.05215128
         1         1         2         2         2         2     -0.05922690
         1         1         3         3         1         2      0.05107585
         1         1         3         3         2         1      0.05215128
         1         1         3         3         2         2     -0.05922690
         1         1         5         5         1         2      0.05107585
         1         1         5         5         2         1      0.05215128
         1         1         5         5         2         2     -0.05922690

 Spin contamination <S**2-Sz**2-Sz>     0.00310386

 Memory could be reduced to 3.50 Mwords without degradation in triples
 

 RESULTS
 =======

  Reference energy                   -942.886540641663
  UCCSD singles energy                 -0.000670414211
  UCCSD pair energy                    -0.077828577069
  UCCSD correlation energy             -0.078498991280
  Triples (T) contribution             -0.003025514464
  Total correlation energy             -0.081524505744
 
  RHF-UCCSD energy                   -942.965039632943
  RHF-UCCSD[T] energy                -942.968095988835
  RHF-UCCSD-T energy                 -942.968035346636
 !RHF-UCCSD(T) energy                -942.968065147408

[...]
    221     95      0      0      0     -1 ( 0, 0, 1) 1   0        8.027576434        8.027576434
    222     96      0      0      0      1 ( 0, 0, 1) 1   0        8.077624697        8.077624697
    223    135      0      0      0     -1 ( 0, 0, 2) 2   0        8.027576434        8.027576434
    224    136      0      0      0      1 ( 0, 0, 2) 2   0        8.077624697        8.077624697
    225    197      0      0      0     -1 ( 0, 0, 4) 4   0        8.027576434        8.027576434
    226    198      0      0      0      1 ( 0, 0, 4) 4   0        8.077624697        8.077624697
    227    257      0      0      0     -1 ( 0, 0, 7) 7   0        8.027576434        8.027576434
    228    258      0      0      0      1 ( 0, 0, 7) 7   0        8.077624697        8.077624697
    229    259      0      0      0     -1 ( 0, 0, 7) 7   0        8.027576434        8.027576434
    230    260      0      0      0      1 ( 0, 0, 7) 7   0        8.077624697        8.077624697
    231    261      0      0      0     -1 ( 0, 0, 7) 7   0        9.313559237        9.313559237
    232    202      0      0      0      1 ( 0, 0, 4) 4   0        9.458214607        9.458214607
    233    199      0      0      0     -1 ( 0, 0, 4) 4   0        9.344732581        9.344732581
    234    100      0      0      0      1 ( 0, 0, 1) 1   0        9.465566309        9.465566309
    235     97      0      0      0     -1 ( 0, 0, 1) 1   0        9.354114425        9.354114425
    236    140      0      0      0      1 ( 0, 0, 2) 2   0        9.465566309        9.465566309
    237    137      0      0      0     -1 ( 0, 0, 2) 2   0        9.354114425        9.354114425
    238     98      0      0      0      1 ( 0, 0, 1) 1   0        9.470463950        9.470463950
    239     99      0      0      0     -1 ( 0, 0, 1) 1   0        9.360376653        9.360376653
    240    138      0      0      0      1 ( 0, 0, 2) 2   0        9.470463950        9.470463950
    241    139      0      0      0     -1 ( 0, 0, 2) 2   0        9.360376653        9.360376653
    242    200      0      0      0      1 ( 0, 0, 4) 4   0        9.477805179        9.477805179
    243    201      0      0      0     -1 ( 0, 0, 4) 4   0        9.369781507        9.369781507
    244    262      0      0      0      1 ( 0, 0, 7) 7   0        9.502230680        9.502230680
    245    161      0      0      0     -1 ( 0, 0, 3) 3   0        9.550121335        9.550121335
    246     56      0      0      0      1 ( 0, 0, 0) 0   0        9.630054836        9.630054836
    247    223      0      0      0     -1 ( 0, 0, 5) 5   0        9.551367705        9.551367705
    248     58      0      0      0      1 ( 0, 0, 0) 0   0        9.633006629        9.633006629
    249    245      0      0      0     -1 ( 0, 0, 6) 6   0        9.551367705        9.551367705
    250    160      0      0      0      1 ( 0, 0, 3) 3   0        9.633006629        9.633006629
    251     59      0      0      0     -1 ( 0, 0, 0) 0   0        9.557601241        9.557601241
    252    222      0      0      0      1 ( 0, 0, 5) 5   0        9.636696296        9.636696296
    253    221      0      0      0     -1 ( 0, 0, 5) 5   0        9.558848285        9.558848285
    254    244      0      0      0      1 ( 0, 0, 6) 6   0        9.636696296        9.636696296
    255    243      0      0      0     -1 ( 0, 0, 6) 6   0        9.558848285        9.558848285
    256     60      0      0      0      1 ( 0, 0, 0) 0   0        9.640385883        9.640385883
    257     57      0      0      0     -1 ( 0, 0, 0) 0   0        9.560095441        9.560095441
    258    224      0      0      0      1 ( 0, 0, 5) 5   0        9.658832600        9.658832600
    259    159      0      0      0     -1 ( 0, 0, 3) 3   0        9.560095441        9.560095441
    260    246      0      0      0      1 ( 0, 0, 6) 6   0        9.658832600        9.658832600
    261     55      0      0      0     -1 ( 0, 0, 0) 0   0        9.561093246        9.561093246
    262    162      0      0      0      1 ( 0, 0, 3) 3   0        9.662521700        9.662521700
 Fock operator energy:  -938.776547971318     
 Setting normal GetUMatEl routine
Setting integer length of determinants as bit-strings to:      6
Setting integer bit-length of determinants as bit-strings to:     64
 SYMMETRY MULTIPLICATION TABLE
 No Symmetry table found.
                    36  Symmetry PAIRS
                     8  DISTINCT ORBITAL PAIR PRODUCT SYMS
 Symmetry and spin of orbitals correctly set up for excitation generators.
 Simply transferring this into a spin orbital representation.
 Not storing the H matrix.
 <D0|H|D0>=  -942.884293341636     
 <D0|T|D0>=  -10.2055201378845     
 FDET                     1                     2                     3
                     5                     7
 FDet has     1 alpha electrons, and     4 beta electrons.
                          0  alpha-alpha occupied electron pairs
                          6  beta-beta occupied electron pairs
                          4  alpha-beta occupied electron pairs
                       8385 alpha-alpha (vacant) hole pairs
                       8001 beta-beta (vacant) hole pairs
                      16510 alpha-beta (vacant) hole pairs
 
 Performing FCIQMC....
 
Symmetry of reference determinant is:          0
Symmetry of reference determinant from spin orbital symmetry info is:          0
*********** INITIATOR METHOD IN USE ***********
Starting with only the reference determinant in the fixed initiator space.
Value for seed is:            7

WARNING.  Error in SetupParameters
No iteration number specified. Only running for 100 iterations initially. Change with ITERATIONS option.

Reference Energy set to:      -942.8842933416
 No brillouin theorem assumed. Single excitations also used to calculate project
 ed energy.
 Calculating approximate pDoubles for use with excitation generator by looking a excitations from reference.
  14084 double excitations, and      85 single excitations found from reference. This will be used to calculate pDoubles.
 pDoubles set to:       0.994001
 pSingles set to:       0.005999
From analysis of reference determinant and connections, an upper bound for the timestep is:       0.0038503235
 Using initial time-step:   3.850323464021550E-003
Will dynamically update timestep to limit spawning probability to   3.00000
Initial Diagonal Shift:         0.0000000000
 Connectivity of HF determinant is:                  14169
Low memory requested for walkers, so increasing memory to 20Mb to avoid memory errors
Memory allocated for a maximum particle number per node of:         374491
Spawning vectors allowing for a total of         3000 particles to be spawned in any one iteration per core.
Reference processor is:        0
Initial reference is: (    1,    2,    3,    5,    7)
Initial number of particles set to          1 and shift will be held at     0.000 until particle number gets to           10000
 Initial memory (without excitgens + temp arrays) consists of :      20.274635 Mb/Processor
 Only one array of memory to store main particle list allocated...
 Initial memory allocation sucessful...
 
        Step    Shift           WalkerCng       GrowRate        TotWalkers      Annihil         NoDied          NoBorn          Proj.E          Av.Shift        Proj.E.Cyc      NoatHF          NoatDoubs       AccRat        UniqueDets   IterTime
           0    0.000000        0.000000        0.000000        1.000000        0.000000        0.000000        0.000000        0.000000        0.000000        0.000000        1.000000        0.000000        0.000000               1   0.0000    
          10    0.000000        0.000000        1.000000        1.000000        0.000000        0.000000        0.000000        0.000000        0.000000        0.000000        1.000000        0.000000        0.000000               1   0.0000    
          20    0.000000        0.000000        1.000000        1.000000        0.000000        0.000000        0.000000        0.000000        0.000000        0.000000        1.000000        0.000000        0.000000               1   0.0000    
          30    0.000000        0.000000        1.000000        1.000000        0.000000        0.000000        0.000000        0.000000        0.000000        0.000000        1.000000        0.000000        0.000000               1   0.0000    
          40    0.000000        0.000000        1.000000        1.000000        0.000000        0.000000        0.000000        0.000000        0.000000        0.000000        1.000000        0.000000        0.000000               1  0.99945E-04
          50    0.000000        0.000000        1.000000        1.000000        0.000000        0.000000        0.000000        0.000000        0.000000        0.000000        1.000000        0.000000        0.000000               1   0.0000    
          60    0.000000        1.000000        1.200000        2.000000        0.000000        0.000000        2.000000      -0.3970271E-03    0.000000      -0.2382163E-02    1.000000        1.000000       0.1666667               2   0.0000    
          70    0.000000        0.000000        1.666667        2.000000        0.000000        0.000000        0.000000      -0.2041854E-02    0.000000      -0.1191081E-01    1.000000        1.000000        0.000000               2   0.0000    
          80    0.000000        0.000000       0.9500000        2.000000        0.000000        1.000000        1.000000      -0.3424455E-02    0.000000      -0.1310266E-01    1.000000        1.000000       0.5263158E-01           2   0.0000    
          90    0.000000        0.000000        1.052632        2.000000        0.000000        0.000000        1.000000      -0.5691233E-02    0.000000      -0.2382546E-01    1.000000        1.000000       0.5000000E-01           2   0.0000    
         100    0.000000        0.000000        1.000000        2.000000        0.000000        0.000000        0.000000      -0.7504655E-02    0.000000      -0.2382546E-01    1.000000        1.000000        0.000000               2   0.0000    
 - - - - - - - - - - - - - - - - - - - - - - - -
 Total loop-time:   1.998901367187500E-003
 - - - - - - - - - - - - - - - - - - - - - - - -
 
Current reference: 
(    1,    2,    3,    5,    7)
1110101000000000000000000000000000000000000000000000000000000000000000000000000000000000000000000000000000000000000000000000000000000000000000000000000000000000000000000000000000000000000000000000000000000000000000000000000000000000000000000000000000000000000000
 
Most occupied          2 determinants as excitations from reference: 
 
 Excitation   ExcitLevel   Seniority    Walkers    Weight    Init?   Proc
1110101000000000000000000000000000000000000000000000000000000000000000000000000000000000000000000000000000000000000000000000000000000000000000000000000000000000000000000000000000000000000000000000000000000000000000000000000000000000000000000000000000000000000000    0    3    1.000000      0.70711  Y      0
1100001000000000000000000000000000000000000000000000000000000000000000000000000000000000000000000000000000000000000000000000000000000000000000001000000000000000000000000000000000000000000000000000000000000010000000000000000000000000000000000000000000000000000000    2    3    1.000000      0.70711  N      0
 

 Load balancing information based on the last iteration:
 Mean number of determinants/process       2.0000000000
 Min number of determinants/process                  2
 Max number of determinants/process                  2


Calculating approximate errorbar for energy estimates...

Calculation has not entered variable shift phase. Error analysis therefore not performed.
Direct reblocking of instantaneous energy possible, but this would contain finite sampling bias.


RESULTS FOR STATE 1.1
=====================

 Current reference energy                            -942.884293341636
 Projected correlation energy                          -0.007504654956
 No automatic errorbar obtained for projected energy
 No reliable averaged shift correlation energy could be obtained automatically

 Total projected energy        -942.89179800
 !FCIQMC STATE 1.1 ENERGY            -942.891797996592


 
 ================================================================
 Memory usage
 Maximum memory defined is (MB) :    8192.0
 Maximum memory used is    (MB) :     306.0
 
 Large memory allocations:
 
 Name              Allocated in       Deallocated in         Size
 - - - - - - - - - - - - - - - - - - - - - - - - - - - - - - - - 
 UMat              IntInit            IntCleanup          285.2MB
 WalkVecDets       InitFCIMCPar       DeallocFciMCMemPar   17.1MB
 WalkVecH          InitFCIMCPar       DeallocFciMCMemPar    2.9MB
 TMAT2D            SetupTMAT          not deallocated     536.3KB
 SpawnVec          InitFCIMCPar       DeallocFciMCMemPar  140.6KB
 SpawnVec2         InitFCIMCPar       DeallocFciMCMemPar  140.6KB
 G1                SysInit            not deallocated      14.3KB
 Arr               SysInit            not deallocated       4.1KB
 SymPairProds      GenSymStatePairs   EndSym                3.0KB
 SymReps           GENMOLPSYMREPS     EndSym                2.0KB
 ================================================================

 ================================================================
 Timing report.

 Timing of most expensive procedures.

 Procedure                    Calls       CPU    system     total
 - - - - - - - - - - - - - - - - - - - - - - - - - - - - - - - - 
 NECICUBE                         1      7.26      0.00      7.26
 CommsTime                      100      0.00      0.00      0.00
 SysInit                          1      0.00      0.00      0.00
 SyncTime                       104      0.00      0.00      0.00
 WalkerTime                     100      0.00      0.00      0.00
 AnnihilTime                    100      0.00      0.00      0.00
 Compression interface          100      0.00      0.00      0.00
 Compress Sort interface        100      0.00      0.00      0.00
 AnnMainTime                    100      0.00      0.00      0.00
 SortTime                       100      0.00      0.00      0.00
 - - - - - - - - - - - - - - - - - - - - - - - - - - - - - - - - 
 Total                                   7.26      0.00      7.26

 Global CPU time          7.27
 Global system time       0.00
 Global total time        7.27
 ================================================================
 Calculation ended 12/01/2019 at 09:09:34
 ================================================================
 
 CPU-time for FCIQMC:            6.8 sec
 Elapsed-time for FCIQMC         7.3 sec


 **********************************************************************************************************************************
 DATASETS  * FILE   NREC   LENGTH (MB)   RECORD NAMES
              1      20       48.41       500      610      700      900      950      970     1000      129      960     1100   
                                          VAR    BASINP    GEOM    SYMINP    ZMAT    AOBASIS   BASIS     P2S    ABASIS      S 
                                         1400     1410     1200     1210     1080     1600     1650     1300     1700     1380   
                                           T        V       H0       H01     AOSYM     SMH    MOLCAS    ERIS     OPER     JKOP   

              2       6        0.69       700     1000      520     2100     2200     2140   
                                         GEOM     BASIS   MCVARS     RHF      UHF     MCSCF   

 PROGRAMS   *        TOTAL    FCIQMC    CASSCF       UHF  UCCSD(T)  RCCSD(T)     RCISD       RHF       INT
 CPU TIMES  *        98.53     65.82      1.49      0.48      8.75      6.66      3.70      0.50     10.93
 REAL TIME  *       129.17 SEC
 DISK USED  *       136.02 MB      
 **********************************************************************************************************************************

1PROGRAM * FCI (Full CI)     Author: P.J. Knowles, 1984

 ***  Initialisation ***
 
 Molecular orbitals read from record     2140.2  Type=MCSCF/NATURAL (state 1.1)
 
 Frozen orbitals:              9 (  3  2  2  0  2  0  0  0)
 Active orbitals:            131 ( 27 20 20 12 20 12 12  8)
 Active electrons:             5
 Spin quantum number:          1.5
 Orbital pairs:                  1278    1116    1116    1028    1116    1028    1028     936
 Strings:                     1465664 1464264 1464264 1464440 1464264 1464440 1464440 1464864
                                   27      20      20      12      20      12      12       8
 Determinants:               ****************************************************************

 Load integrals               99.5 sec
 Transform integrals         105.9 sec
 Storage for integrals:        9450553
 Remaining memory:           *********

 Core energy:            -936.78651857
 Run Hamiltonian processor DAVIDSON
 Symmetry:                   1
 Trial vector:                  0.00
 Result vector:                 0.00
 Maximum iterations:           90
 Convergence threshold:         0.0000100
 RHS vector:                    0.00
 Hamiltonian shift:             0.0000000
 Output threshold:              0.0500000
 Options:                        0
 Number of roots:             1

 Hamiltonian diagonaliser entered at time    150.84

 Initial configuration generated:
 1125793      1.0000000   -942.8842933

 It  Tr    CPU  Convergence   Energy       Pop     dE(next)

  1   120010.2  1.00000000  -942.88429334
                                           0.00 -0.08376409 -0.08376402
  2   133740.7  0.24419040  -942.95617677
                                           0.00 -0.00864431 -0.00862947
  3   153016.2  0.08666529  -942.96493752
                                           0.01 -0.00139098 -0.00137977
  4   181444.4  0.03832704  -942.96655778
                                           0.02 -0.00037550 -0.00037020
  5   1*******  0.01510509  -942.96689616
                                           0.03 -0.00009467 -0.00009259
  6   1*******  0.01016521  -942.96700690
                                           0.03 -0.00003159 -0.00003058
  7   1*******  0.00775858  -942.96705127
                                           0.05 -0.00001473 -0.00001409
  8   1*******  0.00496950  -942.96707258
                                           0.06 -0.00000737 -0.00000697
  9   1*******  0.00346104  -942.96708219
                                           0.07 -0.00000337 -0.00000316
 10   1*******  0.00197336  -942.96708654
                                           0.09 -0.00000149 -0.00000138
 11   1*******  0.00131278  -942.96708857
                                           0.11 -0.00000075 -0.00000068
 12   1*******  0.00086995  -942.96708957
                                           0.12 -0.00000040 -0.00000035
 13   1*******  0.00057087  -942.96709003
                                           0.13 -0.00000019 -0.00000017
 14   1*******  0.00035392  -942.96709023
                                           0.16 -0.00000007 -0.00000006
 15   1*******  0.00021545  -942.96709030
                                           0.19 -0.00000002 -0.00000002
 16   1*******  0.00011449  -942.96709033
                                           0.19 -0.00000001 -0.00000001
 17   1*******  0.00007257  -942.96709034
                                           0.20 -0.00000000 -0.00000000
 18   1*******  0.00005281  -942.96709034
                                           0.22 -0.00000000 -0.00000000
 19   1*******  0.00003147  -942.96709034
--- SharcNET Job Epilogue ---
Job returned with status 9.
               jobid: 1659325
               resid: 3134240
         exit status: 9
      allocated time: 8702720
           user time: 2162110
         system time: 430605
peak rss=16106127360; peak vsz=27610591232 (bytes)
atime=8702720; utime=2162110; stime=430605; exit=9
