 --invoking executable--
/home/nike/cfour_v2.00beta/bin/xjoda


   *************************************************************************
         <<<     CCCCCC     CCCCCC   |||     CCCCCC     CCCCCC   >>>
       <<<      CCC        CCC       |||    CCC        CCC         >>>
      <<<      CCC        CCC        |||   CCC        CCC            >>>
    <<<        CCC        CCC        |||   CCC        CCC              >>>
      <<<      CCC        CCC        |||   CCC        CCC            >>>
       <<<      CCC        CCC       |||    CCC        CCC         >>>
         <<<     CCCCCC     CCCCCC   |||     CCCCCC     CCCCCC   >>>
   *************************************************************************

     ****************************************************************
     * CFOUR Coupled-Cluster techniques for Computational Chemistry *
     ****************************************************************
 

   Department of Chemistry                Institut fuer Physikalische Chemie
   University of Texas at Austin          Universitaet Mainz
   Austin, TX  78712, USA                 D-55099 Mainz, Germany
 
                       Version 2.00beta
 
                     wob103                                            
                     Wed Apr  4 22:21:07 EDT 2018                      
                     integer*8 version is running
 
********************************************************************************
*                          Input from ZMAT file                                *
********************************************************************************
TITLE                                                                           
C                                                                               
                                                                                
*ACES2(CALC=CC(n)                                                               
EXCITATION=3                                                                    
INPUT_MRCC=ON                                                                   
CC_PROG=MRCC                                                                    
DBOC=1                                                                          
XFORM_TOL=18                                                                    
SAVE_INTS=ON                                                                    
SCF_EXPORDER=6                                                                  
SCF_EXPSTART=5                                                                  
#SCF_DAMPING=1000                                                               
SCF_EXTRAPOLATION=ON                                                            
SCF_CONV=10                                                                     
SCF_MAXCYC=9999                                                                 
CC_CONV=10                                                                      
CC_MAXCYC=999                                                                   
T3_EXTRAPOL=ON                                                                  
REFERENCE=UHF                                                                   
CHARGE=+1                                                                       
MULT=2                                                                          
ABCDTYPE=STANDARD                                                               
OCCUPATION=2-1-0-0-0-0-0-0/2-0-0-0-0-0-0-0                                      
MEM=32                                                                          
MEM_UNIT=GB                                                                     
BASIS=SPECIAL)                                                                  
                                                                                
C:aCVDZ-EMSL                                                                    
                                                                                
********************************************************************************
  @GTFLGS-W, Keyword #SCF_DAMPING not known and is ignored.
    -------------------------------------------------------------------
                    CFOUR Control Parameters 
    -------------------------------------------------------------------
        External           Internal           Value            Units
          Name               Name
    -------------------------------------------------------------------
       ABCDTYPE             IABCDT         STANDARD     [  0]   ***   
       ANHARMONIC           IANHAR         OFF          [  0]   ***   
       ANH_ALGORIT          IANALG         STANDARD     [  0]   ***   
       ANH_DERIVAT          IANDER         SECOND       [  1]   ***   
       ANH_STEPSIZ          ICUBST             50000          x 10-6  
       ANH_SYMMETR          IANHSM         ABELIAN      [  0]   ***   
       AO_LADDERS           IAOLAD         SINGLEPASS   [  1]   ***   
       BASIS                IBASIS         SPECIAL      [  0]   ***   
       BREIT                IBREIT         OFF          [  0]   ***   
       BRUCK_CONV           IBRTOL          10D-  4             ***   
       BRUECKNER            IBRKNR             OFF      [  0]   ***   
       BUFFERSIZE           IBUFFS            600               ***   
       CACHE_RECS           ICHREC             10               ***   
       CALCLEVEL            ICLLVL           CC(n)      [ 49]   ***   
       CCORBOPT             ICCORB             OFF      [  0] x 0.01  
       CC_CONV              ICCCNV          10D- 10             ***   
       CC_EXPORDER          ICCEOR              5               ***   
       CC_EXTRAPOL          ICCEXT             DIIS     [  1]   ***   
       CC_MAXCYC            ICCCYC            999              cycles 
       CC_PROGRAM           ICCPRO         MRCC         [  2]   ***   
       CHARGE               ICHRGE              1               ***   
       CHOLESKY             ICHOLE         OFF          [  0]   ***   
       CIS_CONV             ICISTL              5               ***   
       COMM_SIZE            IPSIZE            ***               ***   
       CONSTANT             ICONST         OLD          [  1]   ***   
       CONTINUUM            ICONTU         NONE         [  0]   ***   
       CONTRACTION          ICNTYP          GENERAL     [  1]   ***   
       COORDINATES          ICOORD         INTERNAL     [  0]   ***   
       CPHF_CONVER          ICPHFT          10D- 16             ***   
       CPHF_MAXCYC          ICPHFC             64              cycles 
       CUBIC                ICUBIC         OFF          [  0]   ***   
       CURVILINEAR          ICURVY            OFF       [  0]   ***   
       DBOC                 IDBOC          ON           [  1]   ***   
       DCT                  IDCT           OFF          [  0]   ***   
       DERIV_LEV            IDRLVL            SECOND    [  2]   ***   
       DIAG_MRCC            IEOMST          10D-  0             ***   
       DIFF_TYPE            IDIFTY         RELAXED      [  0]   ***   
       DIRECT               IDIRCT         OFF          [  0]   ***   
       DROPMO               IDRPMO      NONE         
       ECP                  IECP           OFF          [  0]   ***   
       EIGENVECTOR          IVEC                1               ***   
       EL_ANHARM            IELANH         OFF          [  0]   ***   
       EOMFOLLOW            IEOMSR         ENERGY       [  0]   ***   
       EOM_MRCC             IMRCCE         NEW          [  1]   ***   
       EOM_NONIT            EOMNON         OFF          [  0]   ***   
       EOM_NSING            IEOMSI          10D-  0             ***   
       EOM_NSTATES          IMRCCD         DAVIDSON     [  0]   ***   
       EOM_NTRIP            IEOMTR          10D-  0             ***   
       EOM_ORDER            IEXORD         ENERGY       [  0]   ***   
       ESTATE_CONV          IEXTOL          10D-  5             ***   
       ESTATE_DIAG          IEXDIG         ITERATIVE    [  0]   ***   
       ESTATE_LOCK          IESLOC         ON           [  1]   ***   
       ESTATE_MAXC          IEXMXC             20               ***   
       ESTATE_PROP          IEXPRP         OFF          [  0]   ***   
       EVAL_HESS            IRECAL              0            # of cyc.
       EXCITATION           IEXCIT              3               ***   
       EXCITE               IEXCIT         NONE         [  0]   ***   
       FCGRADNEW            IFCGNW         OFF          [  0]   ***   
       FC_FIELD             IFINFC              0             x 10-6  
       FD_CALTYPE           IFDCAL         GRADONLY     [  0]   ***   
       FD_PROJECT           IFDPRJ         OFF          [  1]   ***   
       FD_STEPSIZE          IDISFD              0            10-4 bohr
       FD_USEGROUP          IFDGRP         FULL         [  0]   ***   
       FILE_RECSIZ          IFLREC              4096           words  
       FINITE_PERT          IFIPER              0             x 10-6  
       FIXGEOM              IFIXGM         OFF          [  0]   ***   
       FOCK                 IFOCK          AO           [  1]   ***   
       FREQ_ALGORI          IVIALG         STANDARD     [  0]   ***   
       FROZEN_CORE          IFROCO         OFF          [  0]   ***   
       FROZEN_VIRT          IFROVI         OFF          [  0]   ***   
       GAMMA_ABCD           IGABCD         STORE        [  0]   ***   
       GAMMA_ABCI           IGABCI         STORE        [  0]   ***   
       GENBAS_1             IGNBS1              0               ***   
       GENBAS_2             IGNBS2              0               ***   
       GENBAS_3             IGNBS3              0               ***   
       GENBAS_4             IGNBS4              0               ***   
       GEO_CONV             ICONTL              5              H/bohr 
       GEO_MAXCYC           IOPTCY             50               ***   
       GEO_MAXSTEP          IMXSTP            300            millibohr
       GEO_METHOD           INR            SINGLE_POINT [  5]   ***   
       GIAO                 IGIAO          OFF          [  1]   ***   
       GIMIC                IGIMIC         OFF          [  0]   ***   
       GRID                 IGRID          OFF          [  0]   ***   
       GRID_ALGO            IGALGO         SERIAL       [  0]   ***   
       GUESS                IGUESS            MOREAD    [  0]   ***   
       HBAR                 IHBAR              OFF      [  0]   ***   
       HESS_TYPE            IHESTP         SCF          [  0]   ***   
       HF2_FILE             IHF2Fl         USE          [  1]   ***   
       HFSTABILITY          ISTABL         OFF          [  0]   ***   
       INCORE               INCORE             OFF      [  0]   ***   
       INPUT_MRCC           IMRCC          ON           [  1]   ***   
       INTEGRALS            INTTYP             VMOL     [  1]   ***   
       JODA_PRINT           IJPRNT              0               ***   
       LINDEP_TOL           ILINDP              8               ***   
       LINEQ_CONV           IZTACN          10D-  7           cycles  
       LINEQ_EXPOR          ILMAXD              5               ***   
       LINEQ_MAXCY          ILMAXC             50               ***   
       LINEQ_TYPE           ILTYPE         DIIS         [  1]   ***   
       LOCK_ORBOCC          ILOCOC             OFF      [  0]   ***   
       MEMORY_SIZE          IMEMSZ         *********           words  
       MEM_UNIT             IMEMU          GB           [  3]   ***   
       MRCC                 IMRCCC         OFF          [  0]   ***   
       MULTIPLICTY          IMULTP              2               ***   
       NEGEVAL              IDIE             ABORT      [  0]   ***   
       NEWNORM              INEWNO         OFF          [  0]   ***   
       NON-HF               INONHF             OFF      [  0]   ***   
       NTOP_TAMP            ITOPT2             15               ***   
       NUC_MODEL            INUCMO         POINT        [  0]   ***   
       OCCUPATION           IOCCU  A   2,  1,  0,  0,  0,  0,  0,  0,
                                   B   2,  0,  0,  0,  0,  0,  0,  0,
       OPEN-SHELL           IOPEN          SPIN-ORBITAL [  0]   ***   
       ORBITALS             IORBTP           STANDARD   [  0]   ***   
       PARALLEL             IPARAL         ON           [  1]   ***   
       PARA_INT             IPINTS         ON           [  1]   ***   
       PARA_PRINT           IPPRIN              0               ***   
       PERT_ORB             IPTORB         STANDARD     [  0]   ***   
       POINTS               IGRDFD              0               ***   
       PRINT                IPRNT               0               ***   
       PROPS                IPROPS             OFF      [  0]   ***   
       PROP_INTEGR          IINTYP         INTERNAL     [  0]   ***   
       PSI                  IPSI           OFF          [  0]   ***   
       QUARTIC              IQUART         OFF          [  0]   ***   
       RAMAN_INT            IRAMIN         OFF          [  0]   ***   
       RAMAN_ORB            IRAMRE         UNRELAXED    [  0]   ***   
       RDO                  IRDOFM              ON      [  1]   ***   
       REFERENCE            IREFNC             UHF      [  1]   ***   
       RELATIVIST           IRELAT         OFF          [  0]   ***   
       RELAX_DENS           IRDENS              ON      [  1]   ***   
       RESET_FLAGS          IRESET             OFF      [  0]   ***   
       RESTART_CC           ICCRES         OFF          [  0]   ***   
       ROT_EVEC             ROTVEC              0               ***   
       SAVE_INTS            ISVINT              ON      [  1]   ***   
       SCALE_ON             ISTCRT              0               ***   
       SCF_CONV             ISCFCV          10D- 10             ***   
       SCF_DAMPING          IDAMP               0             x 10-3  
       SCF_EXPORDE          IRPPOR              6               ***   
       SCF_EXPSTAR          IRPPLS              5               ***   
       SCF_EXTRAPO          IRPP                ON      [  1]   ***   
       SCF_MAXCYC           ISCFCY            ***              cycles 
       SCF_NOSTOP           ISCFST         OFF          [  0]   ***   
       SCF_PRINT            ISCFPR              0               ***   
       SD_FIELD             IFINSD              0             x 10-6  
       SEQUENCE             ISEQUE         OFF          [  0]   ***   
       SOPERT               IPERSO         OFF          [  0]   ***   
       SPHERICAL            IDFGHI             ON       [  1]   ***   
       SPINORBIT            ISOCAL         OFF          [  0]   ***   
       SPINROTATIO          ISRCON         OFF          [  0]   ***   
       SPIN_FLIP            ISPFLP         OFF          [  0]   ***   
       SPIN_ORBIT           ISPORB         OFF          [  0]   ***   
       SPIN_SCAL            ISCSMP         OFF          [  0]   ***   
       SUBGROUP             ISUBGP         DEFAULT      [  0]   ***   
       SUBGRPAXIS           ISBXYZ         X            [  0]   ***   
       SYMMETRY             ISYM             ON         [  0]   ***   
       SYM_CHECK            ISYMCK         OVERRIDE     [  1]   ***   
       T3_EXTRAPOL          IT3EXT         ON           [  1]   ***   
       TAMP_SUM             IEVERY              5               ***   
       TESTSUITE            ITESTS         OFF          [  0]   ***   
       THERMOCH             ITHERM         OFF          [  0]   ***   
       TOL_CHOLESK          ITOLCH          10D-  4             ***   
       TRANGRAD             IRESRM         OFF          [  0]   ***   
       TRANS_INV            ITRAIN         IGNORE       [  1]   ***   
       TREAT_PERT           ITREAT         SIMULTANEOUS [  0]   ***   
       UIJ_THRESHO          IUIJTH              1               ***   
       UNITS                IUNITS         ANGSTROM     [  0]   ***   
       UNOS                 IUNOS          OFF          [  0]   ***   
       UPDATE_HESS          IHUPDT         ON           [  1]   ***   
       VIBPHASE             ISETPH         STANDARD     [  0]   ***   
       VIBRATION            IVIB             ANALYTIC   [  1]   ***   
       VIB_ALGORIT          IGEALG         STANDARD     [  0]   ***   
       VNATORB              IVNORB         OFF          [  0]   ***   
       VTRAN                IVTRAN         FULL/PARTIAL [  0]   ***   
       XFIELD               IXEFLD              0             x 10-6  
       XFORM_TOL            IXFTOL          10D- 18             ***   
       YFIELD               IYEFLD              0             x 10-6  
       ZFIELD               IZEFLD              0             x 10-6  
    -------------------------------------------------------------------
   1 entries found in Z-matrix 
   Job Title : TITLE                                                                           
  1  C          6    12.00000
 factor:   60.1997200000000     
   Rotational constants (in cm-1): 

   Rotational constants (in MHz): 

********************************************************************************
   The full molecular point group is I h .
   The largest Abelian subgroup of the full molecular point group is D2h .
   The computational point group is D2h .
********************************************************************************
  @GTFLGS-W, Keyword #SCF_DAMPING not known and is ignored.
  There are   27 basis functions.
  @CHECKOUT-I, Total execution time (CPU/WALL):        0.23/       0.57 seconds.
--executable xjoda finished with status     0 in        0.59 seconds (walltime).
 --invoking executable--
/home/nike/cfour_v2.00beta/bin/xvmol
 Serial version of molecule started
********************************************************************************
                    Input from MOL file
********************************************************************************
INTGRL        1    0    1    0    0    0    0    0    0                         
         *** CFOUR Program System (Release V0.1) ***                            
TITLE                                                                           
    1    3 X  Y   Z   0.10E-08              0    0                              
   9999.00      3.00                                                            
          6.00000000    1    3    1    1    1                                   
C #1   0.000000000000000   0.000000000000000   0.000000000000000                
   11    5                                                                      
   6665.00000000000       6.920000000000000E-004 -1.460000000000000E-004        
  0.000000000000000E+000  0.000000000000000E+000  0.000000000000000E+000        
   1000.00000000000       5.329000000000000E-003 -1.154000000000000E-003        
  0.000000000000000E+000  0.000000000000000E+000  0.000000000000000E+000        
   228.000000000000       2.707700000000000E-002 -5.725000000000000E-003        
  0.000000000000000E+000  0.000000000000000E+000  0.000000000000000E+000        
   64.7100000000000       0.101718000000000      -2.331200000000000E-002        
  0.000000000000000E+000  0.000000000000000E+000  0.000000000000000E+000        
   21.0600000000000       0.274740000000000      -6.395500000000000E-002        
  0.000000000000000E+000  0.000000000000000E+000  0.000000000000000E+000        
   7.49500000000000       0.448564000000000      -0.149981000000000             
  0.000000000000000E+000  0.000000000000000E+000  0.000000000000000E+000        
   2.79700000000000       0.285074000000000      -0.127262000000000             
  0.000000000000000E+000  0.000000000000000E+000  0.000000000000000E+000        
  0.521500000000000       1.520400000000000E-002  0.544529000000000             
  0.000000000000000E+000  0.000000000000000E+000  0.000000000000000E+000        
  0.159600000000000      -3.191000000000000E-003  0.580496000000000             
   1.00000000000000       0.000000000000000E+000  0.000000000000000E+000        
   4.53000000000000       0.000000000000000E+000  0.000000000000000E+000        
  0.000000000000000E+000   1.00000000000000       0.000000000000000E+000        
  4.690000000000000E-002  0.000000000000000E+000  0.000000000000000E+000        
  0.000000000000000E+000  0.000000000000000E+000   1.00000000000000             
    6    4                                                                      
   9.43900000000000       3.810900000000000E-002  0.000000000000000E+000        
  0.000000000000000E+000  0.000000000000000E+000                                
   2.00200000000000       0.209480000000000       0.000000000000000E+000        
  0.000000000000000E+000  0.000000000000000E+000                                
  0.545600000000000       0.508557000000000       0.000000000000000E+000        
  0.000000000000000E+000  0.000000000000000E+000                                
  0.151700000000000       0.468842000000000        1.00000000000000             
  0.000000000000000E+000  0.000000000000000E+000                                
   14.5570000000000       0.000000000000000E+000  0.000000000000000E+000        
   1.00000000000000       0.000000000000000E+000                                
  4.041000000000000E-002  0.000000000000000E+000  0.000000000000000E+000        
  0.000000000000000E+000   1.00000000000000                                     
    2    2                                                                      
  0.550000000000000        1.00000000000000       0.000000000000000E+000        
  0.151000000000000       0.000000000000000E+000   1.00000000000000             
FINISH                                                                          
 
********************************************************************************
 One- and two-electron integrals over symmetry-adapted AOs are calculated.

  Spherical harmonics are used.
  
  Integrals less than  0.10E-13 are neglected.

  Nuclear repulsion energy :    0.0000000000 a.u.
  required memory for a1 array                5029908  words 
  required memory for a2 array                2103164  words 
 @GETMEM-I,  Allocated      69 MB of main memory.
  @MOLECU-I, One electron integrals (CPU/WALL):        0.02/       0.02 seconds.
  @TWOEL-I,        634 integrals of symmetry type  I I I I
  @TWOEL-I,       2993 integrals of symmetry type  I J I J
  @TWOEL-I,       2170 integrals of symmetry type  I I J J
  @TWOEL-I,       3304 integrals of symmetry type  I J K L
  @TWOEL-I, Total number of 2-e integrals       9101.
  @MOLECU-I, Two electron integrals (CPU/WALL):        0.01/       0.06 seconds.
  @CHECKOUT-I, Total execution time (CPU/WALL):        0.04/       0.10 seconds.
--executable xvmol finished with status     0 in        0.14 seconds (walltime).
 --invoking executable--
/home/nike/cfour_v2.00beta/bin/xvmol2ja
 @GETMEM-I,  Allocated   30517 MB of main memory.
  @CHECKOUT-I, Total execution time (CPU/WALL):        0.00/       0.01 seconds.
--executable xvmol2ja finished with status     0 in        0.05 seconds (walltime).
 --invoking executable--
/home/nike/cfour_v2.00beta/bin/xvscf
  There are   27 functions in the AO basis.

  There are 8 irreducible representations.

       Irrep        # of functions
         1                  9
         2                  4
         3                  4
         4                  2
         5                  4
         6                  2
         7                  2
         8                  0


  Parameters for SCF calculation: 
        SCF reference function:  UHF  
  Maximum number of iterations: 9999
     Full symmetry point group: I h 
     Computational point group: D2h 
        Initial density matrix: MOREAD                 
     SCF convergence tolerance: 10**(-10)
  DIIS convergence acceleration:  ON
          Latest start for DIIS:   5
                     DIIS order:   6

     Alpha population by irrep:   2    1    0    0    0    0    0    0
      Beta population by irrep:   2    0    0    0    0    0    0    0


  Memory information:      70036 words required.
  Fock matrices are constructed from AO integral file.
 @GETMEM-I,  Allocated       0 MB of main memory.
  Initialization and symmetry analysis required      0.003 seconds.

 total no. of electrons in initial guess :  0.000000000000000E+000
 total no. of electrons in initial guess :  0.000000000000000E+000
  --------------------------------------------------------------------
  Iteration         Total Energy            Largest Density Difference
  --------------------------------------------------------------------
       0             0.000000000000000              0.0000000000D+00
   current occupation vector 
     2  1  0  0  0  0  0  0
     2  0  0  0  0  0  0  0
       1           -36.472127809236305              0.5502705771D+01
   current occupation vector 
     2  1  0  0  0  0  0  0
     2  0  0  0  0  0  0  0
       2           -37.278991717699228              0.3812317085D+01
   current occupation vector 
     2  1  0  0  0  0  0  0
     2  0  0  0  0  0  0  0
       3           -37.290389453463803              0.3786312804D+00
   current occupation vector 
     2  1  0  0  0  0  0  0
     2  0  0  0  0  0  0  0
       4           -37.290762333690772              0.5593116255D-01
   current occupation vector 
     2  1  0  0  0  0  0  0
     2  0  0  0  0  0  0  0
       5           -37.290783869167491              0.1709541996D-01
   current occupation vector 
     2  1  0  0  0  0  0  0
     2  0  0  0  0  0  0  0
       6           -37.290784756489138              0.4446622985D-02
   current occupation vector 
     2  1  0  0  0  0  0  0
     2  0  0  0  0  0  0  0
       7           -37.290784765562229              0.3281697580D-03
   current occupation vector 
     2  1  0  0  0  0  0  0
     2  0  0  0  0  0  0  0
       8           -37.290784765726116              0.2938311511D-04
   current occupation vector 
     2  1  0  0  0  0  0  0
     2  0  0  0  0  0  0  0
       9           -37.290784765736142              0.8514380391D-05
   current occupation vector 
     2  1  0  0  0  0  0  0
     2  0  0  0  0  0  0  0
      10           -37.290784765736269              0.1588013886D-05
   current occupation vector 
     2  1  0  0  0  0  0  0
     2  0  0  0  0  0  0  0
      11           -37.290784765736355              0.7318000428D-08
   current occupation vector 
     2  1  0  0  0  0  0  0
     2  0  0  0  0  0  0  0
      12           -37.290784765736404              0.5922394353D-08
   current occupation vector 
     2  1  0  0  0  0  0  0
     2  0  0  0  0  0  0  0
      13           -37.290784765736362              0.7322407125D-09
   current occupation vector 
     2  1  0  0  0  0  0  0
     2  0  0  0  0  0  0  0
      14           -37.290784765736390              0.1308779751D-09
   current occupation vector 
     2  1  0  0  0  0  0  0
     2  0  0  0  0  0  0  0

  SCF has converged.

 Density matrix saved to file den.dat
 total alpha spin electron number:   3.00000000000000     
 total  beta spin electron number:   2.00000000000000     
     E(SCF)=       -37.290784765736269              0.1281952322D-10

  Eigenvector printing suppressed.


       The average multiplicity is    2.0062521
  The expectation value of S**2 is    0.7562618

 @PUTMOS-I, Writing converged MOs to NEWMOS. 
 @PUTMOS-I, Symmetry   1 Full Blocks  2 Partial Blocksize   1
 @PUTMOS-I, Symmetry   2 Full Blocks  1 Partial Blocksize   0
 @PUTMOS-I, Symmetry   3 Full Blocks  1 Partial Blocksize   0
 @PUTMOS-I, Symmetry   4 Full Blocks  0 Partial Blocksize   2
 @PUTMOS-I, Symmetry   5 Full Blocks  1 Partial Blocksize   0
 @PUTMOS-I, Symmetry   6 Full Blocks  0 Partial Blocksize   2
 @PUTMOS-I, Symmetry   7 Full Blocks  0 Partial Blocksize   2
 @PUTMOS-I, Symmetry   8 Full Blocks  0 Partial Blocksize   0


 
  ORBITAL EIGENVALUES (ALPHA)  (1H = 27.2113838 eV)

       MO #        E(hartree)               E(eV)           FULLSYM    COMPSYM
       ----   --------------------   --------------------   -------   ---------
    1     1         -11.9169244727        -324.2760057757      Ag        Ag (1)
    2     2          -1.2245687617         -33.3222105888      Ag        Ag (1)
    3    10          -0.9112556546         -24.7965273758      Au       B2u (2)
  +++++++++++++++++++++++++++++++++++++++++++++++++++++++++++++++++++++++++++++
    4    20          -0.3628423969          -9.8734437282       u       B1u (5)
    5    14          -0.3628423969          -9.8734437282       u       B3u (3)
    6     3          -0.1139956118          -3.1019783475      Ag        Ag (1)
    7    11          -0.0770734764          -2.0972759493      Au       B2u (2)
    8    21          -0.0673080870          -1.8315461886       u       B1u (5)
    9    15          -0.0673080870          -1.8315461886       u       B3u (3)
   10    18           0.1563249924           4.2538193682       g       B1g (4)
   11    24           0.1563249924           4.2538193682       g       B3g (6)
   12     4           0.1565155690           4.2590052229      Ag        Ag (1)
   13     5           0.1577994282           4.2939408080       g        Ag (1)
   14    26           0.1577994282           4.2939408080       g       B2g (7)
   15    12           0.3765771413          10.2471851305      Au       B2u (2)
   16    16           0.4350724503          11.8389234348       u       B3u (3)
   17    22           0.4350724503          11.8389234348       u       B1u (5)
   18     6           0.5293676415          14.4048260758      Ag        Ag (1)
   19     7           1.2173489910          33.1257506356      Ag        Ag (1)
   20    25           1.2224759980          33.2652635910       g       B3g (6)
   21    19           1.2224759980          33.2652635910       g       B1g (4)
   22     8           1.2432200738          33.8297385997       g        Ag (1)
   23    27           1.2432200738          33.8297385997       g       B2g (7)
   24     9          18.7508348463         510.2361639396      Ag        Ag (1)
   25    13          21.9124301156         596.2675462965      Au       B2u (2)
   26    17          21.9239962496         596.5822768073       u       B3u (3)
   27    23          21.9239962496         596.5822768073       u       B1u (5)


 
  ORBITAL EIGENVALUES ( BETA)  (1H = 27.2113838 eV)

       MO #        E(hartree)               E(eV)           FULLSYM    COMPSYM
       ----   --------------------   --------------------   -------   ---------
    1     1         -11.8871418529        -323.4655794763      Ag        Ag (1)
    2     2          -1.0883017210         -29.6141958404      Ag        Ag (1)
  +++++++++++++++++++++++++++++++++++++++++++++++++++++++++++++++++++++++++++++
    3    20          -0.3399042301          -9.2492644661       u       B1u (5)
    4    14          -0.3399042301          -9.2492644661       u       B3u (3)
    5    10          -0.2742380014          -7.4623955148      Au       B2u (2)
    6     3          -0.1078618262          -2.9350695512      Ag        Ag (1)
    7    21          -0.0644876013          -1.7547968707       u       B1u (5)
    8    15          -0.0644876013          -1.7547968707       u       B3u (3)
    9    11          -0.0519246513          -1.4129416150      Au       B2u (2)
   10    26           0.1584236017           4.3109254310       g       B2g (7)
   11     4           0.1584236017           4.3109254310       g        Ag (1)
   12    18           0.1755405739           4.7767019314       g       B1g (4)
   13    24           0.1755405739           4.7767019314       g       B3g (6)
   14     5           0.1814368057           4.9371465602      Ag        Ag (1)
   15    16           0.4481878921          12.1958127564       u       B3u (3)
   16    22           0.4481878921          12.1958127564       u       B1u (5)
   17    12           0.4938882420          13.4393825167      Au       B2u (2)
   18     6           0.5609797899          15.2650363778      Ag        Ag (1)
   19     7           1.2504063186          34.0252862665       g        Ag (1)
   20    27           1.2504063186          34.0252862665       g       B2g (7)
   21    19           1.2977753491          35.3142631346       g       B1g (4)
   22    25           1.2977753491          35.3142631346       g       B3g (6)
   23     8           1.3151133648          35.7860545351      Ag        Ag (1)
   24     9          18.7733582357         510.8490565331      Ag        Ag (1)
   25    17          21.9301153525         596.7487860647       u       B3u (3)
   26    23          21.9301153525         596.7487860647       u       B1u (5)
   27    13          21.9621939087         597.6216879705      Au       B2u (2)


  VSCF finished.

  @CHECKOUT-I, Total execution time (CPU/WALL):        0.04/       0.53 seconds.
--executable xvscf finished with status     0 in        0.57 seconds (walltime).
 --invoking executable--
/home/nike/cfour_v2.00beta/bin/xvtran
 @GETMEM-I,  Allocated   30517 MB of main memory.
  Full UHF integral transformation
  Transformation of IIII integrals :
  2 passes through the AO integral file were required.
         634 AO integrals were read.
        1218 MO integrals (Spin case AAAA) were written to HF2AA.
        1218 MO integrals (Spin case BBBB) were written to HF2BB.
        2350 MO integrals (Spin case AABB) were written to HF2AB.
  Transformation of IIJJ integrals :
  2 passes through the AO integral file were required.
        2170 AO integrals were read.
        2352 MO integrals (Spin case AAAA) were written to HF2AA.
        2352 MO integrals (Spin case BBBB) were written to HF2BB.
        4704 MO integrals (Spin case AABB) were written to HF2AB.
  Transformation of IJIJ integrals :
  2 passes through the AO integral file were required.
        2993 AO integrals were read.
        3273 MO integrals (Spin case AAAA) were written to HF2AA.
        3273 MO integrals (Spin case BBBB) were written to HF2BB.
        6252 MO integrals (Spin case AABB) were written to HF2AB.
  Transformation of IJKL integrals :
  2 passes through the AO integral file were required.
        3304 AO integrals were read.
        3384 MO integrals (Spin case AAAA) were written to HF2AA.
        3384 MO integrals (Spin case BBBB) were written to HF2BB.
        6768 MO integrals (Spin case AABB) were written to HF2AB.
  Summary of active molecular orbitals: 
------------------------------------------------------------------------
                         * Spin case alpha *
 
  Index      Eigenvalue    Symmetry    Index      Eigenvalue    Symmetry
------------------------------------------------------------------------
     1       -11.9169245        1        15        -0.0673081        3
     2        -1.2245688        1        16         0.4350725        3
     3        -0.9112557        2        17        21.9239962        3
     4        -0.1139956        1        18         0.1563250        4
     5         0.1565156        1        19         1.2224760        4
     6         0.1577994        1        20        -0.3628424        5
     7         0.5293676        1        21        -0.0673081        5
     8         1.2173490        1        22         0.4350725        5
     9         1.2432201        1        23        21.9239962        5
    10        18.7508348        1        24         0.1563250        6
    11        -0.0770735        2        25         1.2224760        6
    12         0.3765771        2        26         0.1577994        7
    13        21.9124301        2        27         1.2432201        7
    14        -0.3628424        3
------------------------------------------------------------------------
------------------------------------------------------------------------
                         * Spin case beta *
 
  Index      Eigenvalue    Symmetry    Index      Eigenvalue    Symmetry
------------------------------------------------------------------------
     1       -11.8871419        1        15        -0.0644876        3
     2        -1.0883017        1        16         0.4481879        3
     3        -0.1078618        1        17        21.9301154        3
     4         0.1584236        1        18         0.1755406        4
     5         0.1814368        1        19         1.2977753        4
     6         0.5609798        1        20        -0.3399042        5
     7         1.2504063        1        21        -0.0644876        5
     8         1.3151134        1        22         0.4481879        5
     9        18.7733582        1        23        21.9301154        5
    10        -0.2742380        2        24         0.1755406        6
    11        -0.0519247        2        25         1.2977753        6
    12         0.4938882        2        26         0.1584236        7
    13        21.9621939        2        27         1.2504063        7
    14        -0.3399042        3
------------------------------------------------------------------------
  @CHECKOUT-I, Total execution time (CPU/WALL):        0.04/       8.59 seconds.
--executable xvtran finished with status     0 in        8.64 seconds (walltime).
 --invoking executable--
/home/nike/cfour_v2.00beta/bin/xintprc
 @GETMEM-I,  Allocated   30517 MB of main memory.
  @GMOIAA-I, Processing MO integrals for spin case AA.
  @GMOIAA-I, Generation of integral list completed.
                      TYPE                NUMBER
                      ----               --------
                      PPPP                  6303
                      PPPH                  3052
                      PPHH                   439
                      PHPH                   326
                      PHHH                    94
                      HHHH                    13

                     TOTAL                 10227
  @GMOIAA-I, Processing MO integrals for spin case BB.
  @GMOIAA-I, Generation of integral list completed.
                      TYPE                NUMBER
                      ----               --------
                      PPPP                  7333
                      PPPH                  2402
                      PPHH                   243
                      PHPH                   201
                      PHHH                    42
                      HHHH                     6

                     TOTAL                 10227
  @GMOIAB-I, Processing MO integrals for spin case AB.
                      TYPE                NUMBER
                      ----               --------
                      PPPP                 13268
                      PPPH1H                3319
                      PPPH2H                2226
                      PPHH                   582
                      PHPH1P                 189
                      PHPH2P                 355
                      PHHH1P                  51
                      PHHH2P                  72
                      HHHH                    12

                     TOTAL                 20074

  @FORMT2-I, Second-order MP correlation energies:
            ------------------------------------------------
            E(SCF)                  =    -37.290784765736 a.u.
            E2(AA)                  =     -0.003511269434 a.u.
            E2(BB)                  =     -0.000484540398 a.u.
            E2(AB)                  =     -0.073055563587 a.u.
            E2(TOT)                 =     -0.077051373419 a.u.
            Total MP2 energy        =    -37.367836139155 a.u.
            ------------------------------------------------
            ----------------------------------------------
                     Projected spin multiplicities: 
            ----------------------------------------------
             <0|S^2|0>                  =    0.7562618327.
             <0|S^2 T2|0>               =   -0.0030088645.
             Projected <0|S^2 exp(T)|0> =    0.7532529682.
             Approximate spin mult.     =    2.0032503271.
            ----------------------------------------------
   Largest T2 amplitudes for spin case AA:
   i   j   a   b             i   j   a   b             i   j   a   b
-----------------------------------------------------------------------------
[  3   2  19  14]-0.01322 [  3   2  25  20]-0.01322 [  3   2  12   7]-0.01312
[  3   2  18  14]-0.01059 [  3   2  24  20]-0.01059 [  3   2  12   4]-0.00714
[  3   2  11   7]-0.00565 [  3   2  25  22]-0.00372 [  3   2  19  16]-0.00372
[  3   2  11   4]-0.00343 [  3   2  19  15]-0.00333 [  3   2  25  21]-0.00333
[  3   2  12   8]-0.00241 [  3   2  18  15]-0.00215 [  3   2  24  21]-0.00215
-----------------------------------------------------------------------------
   Norm of T2AA vector (      113 symmetry allowed elements):  0.0307841053.
-----------------------------------------------------------------------------
   Largest T2 amplitudes for spin case BB:
   i   j   a   b             i   j   a   b             i   j   a   b
-----------------------------------------------------------------------------
[  2   1  17  14]-0.00153 [  2   1  23  20]-0.00153 [  2   1  13  10]-0.00140
[  2   1  13  12]-0.00132 [  2   1  23  22]-0.00129 [  2   1  17  16]-0.00129
[  2   1  16  14] 0.00090 [  2   1  22  20] 0.00090 [  2   1  12  10] 0.00083
[  2   1  13  11]-0.00063 [  2   1  23  21]-0.00056 [  2   1  17  15]-0.00056
[  2   1   9   6]-0.00041 [  2   1  12  11] 0.00029 [  2   1  22  21] 0.00024
-----------------------------------------------------------------------------
   Norm of T2BB vector (       42 symmetry allowed elements):  0.0039345763.
-----------------------------------------------------------------------------
   Largest T2 amplitudes for spin case AB:
       _       _                 _       _                 _       _
   i   j   a   b             i   j   a   b             i   j   a   b
-----------------------------------------------------------------------------
[  2   2  14  14]-0.06791 [  2   2  20  20]-0.06791 [  3   2  19  14]-0.02634
[  3   2  25  20]-0.02634 [  3   2   8  10] 0.02621 [  3   2  12   6]-0.02216
[  3   2  18  14]-0.02000 [  3   2  24  20]-0.02000 [  3   2   5  10]-0.01929
[  2   2   7   6]-0.01838 [  2   2  20  21]-0.01698 [  2   2  14  15]-0.01698
[  2   2  20  22]-0.01613 [  2   2  14  16]-0.01613 [  2   2  22  20]-0.01556
-----------------------------------------------------------------------------
   Norm of T2AB vector (      582 symmetry allowed elements):  0.1378931954.
-----------------------------------------------------------------------------
  @CHECKOUT-I, Total execution time (CPU/WALL):        0.04/       2.64 seconds.
--executable xintprc finished with status     0 in        2.92 seconds (walltime).
 --invoking executable--
/home/nike/cfour_v2.00beta/bin/xint
 @GETMEM-I,  Allocated   30517 MB of main memory.
  itot is                      0
 using new mrcc fort.57
 fort.56
     3     0     0     0     1     4     0     2     0     0     0     1     1     0     0    10     0     0           0.00000     1 30518     0     0
ex.lev,nsing,ntrip, rest,CC/CI, dens,conver, symm, diag,  CS ,spatial,  HF ,ndoub,nacto,nactv, tol ,maxex, sacc, freq, dboc, mem
  @CHECKOUT-I, Total execution time (CPU/WALL):        0.14/       1.08 seconds.
--executable xint finished with status     0 in        4.26 seconds (walltime).
 --invoking executable--
/home/nike/MRCC/dmrcc
 **********************************************************************
                          MRCC program system
 **********************************************************************
 
                              Written by
    Mihaly Kallay, Zoltan Rolik, Jozsef Csontos, Istvan Ladjanszki,
       Lorant Szegedy, Bence Ladoczki, Gyula Samu, Klara Petrov,
        Mate Farkas, Peter Nagy, David Mester, and Bence Hegely
 
        Department of Physical Chemistry and Materials Science
            Budapest University of Technology and Economics
                  Budapest P.O.Box 91, H-1521 Hungary
 
                              www.mrcc.hu

 ************************ 2018-04-04 22:21:24 *************************
 Executing goldstone...

 Generation of CC equations in terms of H and T...
 Generation of antisymmetrized Goldstone diagrams...
 Number of diagrams in T^1 equations:    15
 Number of diagrams in T^2 equations:    37
 Number of diagrams in T^3 equations:    47
 Translation of diagrams to factorized equations...
 Optimizing intermediate calculation...
 Optimizing right-hand EOMCC calculation...
 Optimizing left-hand EOMCC calculation...
 Optimizing density-matrix calculation...
 Optimizing perturbed lambda equations...
 Optimizing perturbed density calculation...
 Number of floating-point operations per iteration step:   1.5008E+07
 Probable CPU time per iteration step (hours):      0.00
 Required memory (Mbytes):      48.1
 Number of intermediates:                                 624
 Number of intermediates to be stored:                    179
 Length of intermediate file (Mbytes):       3.6

 ************************ 2018-04-04 22:21:34 *************************
 Executing xmrcc...

 **********************************************************************
 CC(                     3 ) calculation 
 
 
 Allocation of 100.0 Mbytes of memory...
 Number of spinorbitals:                    54
 Number of alpha electrons:                        3
 Number of beta electrons:                         2
 Spin multiplicity:                     2
 z-component of spin:  0.5
 Spatial symmetry:                      2
 Convergence criterion:  1.0E-10
 Construction of occupation graphs...
 Number of                     0 -fold excitations:                      1
 Number of                     1 -fold excitations:                     31
 Number of                     2 -fold excitations:                    737
 Number of                     3 -fold excitations:                   8505
 Total number of configurations:                   9274
 Calculation of coupling coefficients...
 Length of intermediate file (Mbytes):       3.6
 
 ======================================================================
 
 ======================================================================
 
 
 
 Memory requirements /Mbyte/: 
               Minimal        Optimal
 Real*8:         11.7790        15.3587
 Integer:         8.6310
 Total:          20.4100        23.9897
 

 ************************ 2018-04-04 22:21:35 *************************
 Executing mrcc...

 **********************************************************************
 CCSDT analytic second derivative calculation                           
 
 
 OpenMP parallel version is running.
 Number of CPUs:  32
 Allocation of   15.4 Mbytes of memory...
 Number of spinorbitals:  54
 Number of alpha electrons:  3
 Number of beta  electrons:  2
 Spin multiplicity: 2
 z-component of spin:  0.5
 Spatial symmetry: 2
 Convergence criterion:  1.0E-10
 Construction of occupation graphs...
 Number of 0-fold excitations: 1
 Number of 1-fold excitations: 31
 Number of 2-fold excitations: 737
 Number of 3-fold excitations: 8505
 Total number of determinants: 9274
 Calculation of coupling coefficients...
 Initial cluster amplitudes are generated.
 Length of intermediate file (Mbytes):       3.6
 Reading integral list from unit 55...
 Sorting integrals...
 Sorting integrals...
 Sorting integrals...
 Sorting integrals...
 Energy of reference determinant [au]:     -37.290784765736
 Calculation of diagonal elements of Hamiltonian...
 Calculation of MP denominators...
 
 Starting CC iteration...
 ======================================================================
 Norm of residual vector:     1.45965577
 CPU time [min]:     0.777                   Wall time [min]:     0.043
 
 Iteration  1  CC energy:   -37.36783614  Energy decrease:   0.07705137
 ======================================================================
 Norm of residual vector:     0.15950073
 CPU time [min]:     1.028                   Wall time [min]:     0.052
 
 Iteration  2  CC energy:   -37.39189058  Energy decrease:   0.02405444
 ======================================================================
 Norm of residual vector:     0.05339488
 CPU time [min]:     1.281                   Wall time [min]:     0.061
 
 Iteration  3  CC energy:   -37.39576823  Energy decrease:   0.00387765
 ======================================================================
 Norm of residual vector:     0.01002393
 CPU time [min]:     1.523                   Wall time [min]:     0.069
 
 Iteration  4  CC energy:   -37.39626735  Energy decrease:   0.00049912
 ======================================================================
 Norm of residual vector:     0.00173340
 CPU time [min]:     1.907                   Wall time [min]:     0.083
 
 Iteration  5  CC energy:   -37.39621031  Energy decrease:   0.00005704
 ======================================================================
 Norm of residual vector:     0.00040850
 CPU time [min]:     2.196                   Wall time [min]:     0.093
 
 Iteration  6  CC energy:   -37.39621000  Energy decrease:   0.00000031
 ======================================================================
 Norm of residual vector:     0.00009662
 CPU time [min]:     2.453                   Wall time [min]:     0.101
 
 Iteration  7  CC energy:   -37.39621310  Energy decrease:   0.00000309
 ======================================================================
 Norm of residual vector:     0.00002102
 CPU time [min]:     2.867                   Wall time [min]:     0.115
 
 Iteration  8  CC energy:   -37.39621266  Energy decrease:   0.00000044
 ======================================================================
 Norm of residual vector:     0.00000581
 CPU time [min]:     3.160                   Wall time [min]:     0.125
 
 Iteration  9  CC energy:   -37.39621269  Energy decrease:   0.00000004
 ======================================================================
 Norm of residual vector:     0.00000129
 CPU time [min]:     3.431                   Wall time [min]:     0.134
 
 Iteration 10  CC energy:   -37.39621271  Energy decrease:   0.00000002
 ======================================================================
 Norm of residual vector:     0.00000033
 CPU time [min]:     3.703                   Wall time [min]:     0.143
 
 Iteration 11  CC energy:   -37.39621270  Energy decrease:   0.00000001
 ======================================================================
 Norm of residual vector:     0.00000008
 CPU time [min]:     4.082                   Wall time [min]:     0.156
 
 Iteration 12  CC energy:   -37.39621270  Energy decrease:   1.7370E-09
 ======================================================================
 Norm of residual vector:     0.00000002
 CPU time [min]:     4.374                   Wall time [min]:     0.165
 
 Iteration 13  CC energy:   -37.39621270  Energy decrease:   1.0004E-10
 ======================================================================
 Norm of residual vector:     0.00000001
 CPU time [min]:     4.664                   Wall time [min]:     0.175
 
 Iteration 14  CC energy:   -37.39621270  Energy decrease:   2.1969E-10
 ======================================================================
 Norm of residual vector:     1.2963E-09
 CPU time [min]:     5.992                   Wall time [min]:     0.315
 
 Iteration 15  CC energy:   -37.39621270  Energy decrease:   6.4873E-11
 ======================================================================
 Norm of residual vector:     3.3497E-10
 CPU time [min]:     6.401                   Wall time [min]:     0.329
 
 Iteration 16  CC energy:   -37.39621270  Energy decrease:   7.0060E-12
 ======================================================================
 Norm of residual vector:     8.4933E-11
 CPU time [min]:     6.742                   Wall time [min]:     0.340
 
 Iteration 17  CC energy:   -37.39621270  Energy decrease:   8.0291E-13
 ======================================================================
 
 Iteration has converged in 17 steps.
 
 Final results:
 Total CCSDT energy [au]:            -37.396212698382
 Total MP2 energy [au]:              -37.367836139155
 
 
 
 Starting left-hand LR-CC iteration for root                      1 ...
 ======================================================================
 Norm of residual vector:     1.45965679
 CPU time [min]:     7.263                   Wall time [min]:     0.357
 
 Iteration  1  CI energy:   -37.39621270  Energy decrease:   0.0000E+00
 ======================================================================
 Norm of residual vector:     0.15178677
 CPU time [min]:     7.696                   Wall time [min]:     0.370
 
 Iteration  2  CI energy:   -37.39621270  Energy decrease:   0.0000E+00
 ======================================================================
 Norm of residual vector:     0.03596335
 CPU time [min]:     8.085                   Wall time [min]:     0.382
 
 Iteration  3  CI energy:   -37.39621270  Energy decrease:   0.0000E+00
 ======================================================================
 Norm of residual vector:     0.00887099
 CPU time [min]:     8.478                   Wall time [min]:     0.395
 
 Iteration  4  CI energy:   -37.39621270  Energy decrease:   0.0000E+00
 ======================================================================
 Norm of residual vector:     0.00162223
 CPU time [min]:     8.862                   Wall time [min]:     0.407
 
 Iteration  5  CI energy:   -37.39621270  Energy decrease:   0.0000E+00
 ======================================================================
 Norm of residual vector:     0.00023342
 CPU time [min]:     9.254                   Wall time [min]:     0.419
 
 Iteration  6  CI energy:   -37.39621270  Energy decrease:   0.0000E+00
 ======================================================================
 Norm of residual vector:     0.00004369
 CPU time [min]:     9.646                   Wall time [min]:     0.431
 
 Iteration  7  CI energy:   -37.39621270  Energy decrease:   0.0000E+00
 ======================================================================
 Norm of residual vector:     0.00001064
 CPU time [min]:    10.033                   Wall time [min]:     0.443
 
 Iteration  8  CI energy:   -37.39621270  Energy decrease:   0.0000E+00
 ======================================================================
 Norm of residual vector:     0.00000205
 CPU time [min]:    10.427                   Wall time [min]:     0.456
 
 Iteration  9  CI energy:   -37.39621270  Energy decrease:   0.0000E+00
 ======================================================================
 Norm of residual vector:     0.00000038
 CPU time [min]:    11.042                   Wall time [min]:     0.476
 
 Iteration 10  CI energy:   -37.39621270  Energy decrease:   0.0000E+00
 ======================================================================
 Norm of residual vector:     0.00000009
 CPU time [min]:    11.450                   Wall time [min]:     0.488
 
 Iteration 11  CI energy:   -37.39621270  Energy decrease:   0.0000E+00
 ======================================================================
 Norm of residual vector:     0.00000002
 CPU time [min]:    11.851                   Wall time [min]:     0.501
 
 Iteration 12  CI energy:   -37.39621270  Energy decrease:   0.0000E+00
 ======================================================================
 Norm of residual vector:     4.3892E-09
 CPU time [min]:    12.249                   Wall time [min]:     0.513
 
 Iteration 13  CI energy:   -37.39621270  Energy decrease:   0.0000E+00
 ======================================================================
 Norm of residual vector:     7.1335E-10
 CPU time [min]:    12.645                   Wall time [min]:     0.526
 
 Iteration 14  CI energy:   -37.39621270  Energy decrease:   0.0000E+00
 ======================================================================
 Norm of residual vector:     1.3213E-10
 CPU time [min]:    13.047                   Wall time [min]:     0.538
 
 Iteration 15  CI energy:   -37.39621270  Energy decrease:   0.0000E+00
 ======================================================================
 Norm of residual vector:     2.3960E-11
 CPU time [min]:    13.431                   Wall time [min]:     0.550
 
 Iteration 16  CI energy:   -37.39621270  Energy decrease:   0.0000E+00
 ======================================================================
 
 Iteration has converged in 16 steps.
 
 Final results:
 Total CCSDT energy [au]:            -37.396212698382
 
 
 
 Calculating reduced density-matrix for root 1...
 
 Total energy from RDM [au]:         -37.396212698382
 
 ************************ 2018-04-04 22:22:37 *************************
                      Normal termination of mrcc.
 **********************************************************************
--executable dmrcc finished with status     0 in       73.19 seconds (walltime).
 --invoking executable--
/home/nike/cfour_v2.00beta/bin/xdens
 @GETMEM-I,  Allocated   30517 MB of main memory.
  Unrelaxed density for DBOC is calculated
  sort for dboc
  ----------------------------------------------------------------------
                 Natural orbital occupation numbers
  ----------------------------------------------------------------------
                            Alpha spin
  ----------------------------------------------------------------------
  0.99937  0.98675  0.95458  0.02248  0.02248  0.00421  0.00301  0.00301
  0.00214  0.00106  0.00021  0.00013  0.00012  0.00012  0.00009  0.00009
  0.00003  0.00003  0.00002  0.00002  0.00001  0.00001  0.00000  0.00000
  0.00000  0.00000  0.00000
  Trace of density matrix :   3.0000000000.
  ----------------------------------------------------------------------
                            Beta spin
  ----------------------------------------------------------------------
  0.99937  0.94406  0.02360  0.02360  0.00417  0.00183  0.00110  0.00110
  0.00022  0.00019  0.00015  0.00012  0.00012  0.00010  0.00010  0.00010
  0.00004  0.00004  0.00000  0.00000  0.00000  0.00000  0.00000  0.00000
  0.00000  0.00000  0.00000
  Trace of density matrix :   2.0000000000.
  ----------------------------------------------------------------------
  Density calculation successfully completed.
  @CHECKOUT-I, Total execution time (CPU/WALL):        0.27/       0.70 seconds.
--executable xdens finished with status     0 in        1.29 seconds (walltime).
 --invoking executable--
/home/nike/cfour_v2.00beta/bin/xvdint
 @GETMEM-I,  Allocated   30517 MB of main memory.
 One- and two-electron integral derivatives are calculated
 for UHF-CC/MBPT hessians and dipole derivatives.
 Spherical gaussians are used.
  Integrals for DBOC will be evaluated
 
   First contribution to E(DBOC):        0.00000 cm-1
   Second contribution to E(DBOC):     -374.87117 cm-1
  Evaluation of 1e integral derivatives required    0.06 seconds.
  Evaluation of 2el integral derivatives
  Evaluation of 2e integral derivatives required    0.00 seconds.
  @CHECKOUT-I, Total execution time (CPU/WALL):        0.06/       0.61 seconds.
--executable xvdint finished with status     0 in        0.90 seconds (walltime).
 --invoking executable--
/home/nike/cfour_v2.00beta/bin/xcphf
 @GETMEM-I,  Allocated   30517 MB of main memory.
 Coupled-perturbed HF (CPHF) equations 
 are solved for UHF-CC/MBPT hessian and dipole derivatives.
  irreducible representation Nr.                      1
  # geometric perturbations                      0
 number of lists relativistic                     0
  irreducible representation Nr.                      2
  # geometric perturbations                      1
 number of lists relativistic                     2
  irreducible representation Nr.                      3
  # geometric perturbations                      1
 number of lists relativistic                     2
  irreducible representation Nr.                      4
  # geometric perturbations                      0
 number of lists relativistic                     0
  irreducible representation Nr.                      5
  # geometric perturbations                      1
 number of lists relativistic                     2
  irreducible representation Nr.                      6
  # geometric perturbations                      0
 number of lists relativistic                     0
  irreducible representation Nr.                      7
  # geometric perturbations                      0
 number of lists relativistic                     0
  irreducible representation Nr.                      8
  # geometric perturbations                      0
 number of lists relativistic                     0
  efields on                     2
  efields on                     2
  efields on                     2
 There are 2 perturbations within irrep 2.
  Warning form lineq2 : the initial vector is zero.
 CPHF converged after  13 iterations.
 Calculation of total derivative of f
  range of perturbations from   0 to   2
 There are 2 perturbations within irrep 3.
  Warning form lineq2 : the initial vector is zero.
 CPHF converged after  13 iterations.
 Calculation of total derivative of f
  range of perturbations from   0 to   2
 There are 2 perturbations within irrep 5.
  Warning form lineq2 : the initial vector is zero.
 CPHF converged after  13 iterations.
 Calculation of total derivative of f
  range of perturbations from   0 to   2

                     SCF static dipole polarizability
                     --------------------------------

                         Ex          Ey          Ez

            Ex       6.220144    0.000000    0.000000
            Ey       0.000000    6.418945    0.000000
            Ez       0.000000    0.000000    6.418945



                  SCF static dipole hyperpolarizability
                  -------------------------------------

                         Ex          Ey          Ez

            xx       0.000000    0.000000    0.000000
            xy       0.000000    0.000000    0.000000
            xz       0.000000    0.000000    0.000000
            yy       0.000000    0.000000    0.000000
            yz       0.000000    0.000000    0.000000
            zz       0.000000    0.000000    0.000000



                   Diagonal Born-Oppenheimer Correction
                   ------------------------------------

  HF-SCF 1-el contribution to DBOC is   :         0.000000 cm-1
  Correlated 1-el contribtion to DBOC is:         0.000000 cm-1
  HF-SCF 2-el contribution to DBOC is   :        -8.585304 cm-1
  Correlated 2-el contribtion to DBOC is:         7.034120 cm-1
 
  @CHECKOUT-I, Total execution time (CPU/WALL):        0.02/       0.25 seconds.
--executable xcphf finished with status     0 in        0.31 seconds (walltime).
 --invoking executable--
/home/nike/cfour_v2.00beta/bin/xsdcc
 @GETMEM-I,  Allocated   30517 MB of main memory.
 External CC code used, step:                      1
  soterm F
 CPHF coefficients for occ-occ block: U^x(i,j) = -1/2 S^x(i,j)
 CPHF coefficients for vrt-vrt block: U^x(a,b) = -1/2 S^x(a,b)
 Transformation of derivative integrals from AO to MO basis:
 UHF transformation
 Transformation of DIIIJ integral derivatives.
 3 passes through the AO integral derivative file were needed.
         0 AO integral derivatives were read from file DIIIJ.
 Transformation of first index required    0.0 seconds.
 Transformation of remaining indices required    0.0 seconds.
     14396 MO integral derivatives were written to file DERINT.
 3 passes through the AO integral derivative file were needed.
         0 AO integral derivatives were read from file DIIIJ.
 Transformation of first index required    0.0 seconds.
 Transformation of remaining indices required    0.0 seconds.
      2604 MO integral derivatives were written to file DERINT.
 Transformation of DIIJK integral derivatives.
 2 passes through the AO integral derivative file were needed.
         0 AO integral derivatives were read from file DIIJK.
 Transformation of first index required    0.0 seconds.
 Transformation of remaining indices required    0.0 seconds.
     18088 MO integral derivatives were written to file DERINT.
 2 passes through the AO integral derivative file were needed.
         0 AO integral derivatives were read from file DIIJK.
 Transformation of first index required    0.0 seconds.
 Transformation of remaining indices required    0.0 seconds.
      6240 MO integral derivatives were written to file DERINT.
 Transformation of DIJIK integral derivatives.
 2 passes through the AO integral derivative file were needed.
         0 AO integral derivatives were read from file DIJIK.
 Transformation of first index required    0.0 seconds.
 Transformation of remaining indices required    0.0 seconds.
     27330 MO integral derivatives were written to file DERINT.
 2 passes through the AO integral derivative file were needed.
         0 AO integral derivatives were read from file DIJIK.
 Transformation of first index required    0.0 seconds.
 Transformation of remaining indices required    0.0 seconds.
      3540 MO integral derivatives were written to file DERINT.
 Transformation of DIJKL integral derivatives.
 1 pass through the AO integral derivative file was needed.
         0 AO integral derivatives were read from file DIJKL.
 Transformation of first index required    0.0 seconds.
 Transformation of remaining indices required    0.0 seconds.
     14496 MO integral derivatives were written to file DERINT.
 1 pass through the AO integral derivative file was needed.
         0 AO integral derivatives were read from file DIJKL.
 Transformation of first index required    0.0 seconds.
 Transformation of remaining indices required    0.0 seconds.
      4992 MO integral derivatives were written to file DERINT.
        MO basis integral derivatives are being calculated
             (Symmetry block 2, perturbation   1)
 ABSPERT                      2                     1                     1
                     0 XW
 Perturbed integrals stored on unit 55 for use within external CC programs.
  list                   311                     2                     1
                     2
  list                   311                     2                     2
                     1
  list                   311                     0                     0
                     0
  list                   311                     0                     0
                     0
  list                   311                     0                     0
                     0
  list                   311                     0                     0
                     0
  list                   311                     0                     0
                     0
  list                   311                     0                     0
                     0
  list                   307                    34                    17
                     2
  list                   307                    13                    13
                     1
  list                   307                     0                    10
                     0
  list                   307                     0                     8
                     0
  list                   307                     0                    10
                     0
  list                   307                     0                     8
                     0
  list                   307                     0                     4
                     0
  list                   307                     0                     2
                     0
  list                   314                    37                     1
                    37
  list                   314                    78                     2
                    39
  list                   314                     0                     0
                    30
  list                   314                     0                     0
                    42
  list                   314                     0                     0
                    30
  list                   314                     0                     0
                    42
  list                   314                     0                     0
                    22
  list                   314                     0                     0
                    34
  list                   327                   629                    17
                    37
  list                   327                   507                    13
                    39
  list                   327                   300                    10
                    30
  list                   327                   336                     8
                    42
  list                   327                   300                    10
                    30
  list                   327                   336                     8
                    42
  list                   327                    88                     4
                    22
  list                   327                    68                     2
                    34
  list                   331                  1443                    39
                    37
  list                   331                  1443                    37
                    39
  list                   331                  1260                    42
                    30
  list                   331                  1260                    30
                    42
  list                   331                  1260                    42
                    30
  list                   331                  1260                    30
                    42
  list                   331                   748                    34
                    22
  list                   331                   748                    22
                    34
  list                   312                     0                     1
                     0
  list                   312                     0                     0
                     1
  list                   312                     0                     0
                     0
  list                   312                     0                     0
                     0
  list                   312                     0                     0
                     0
  list                   312                     0                     0
                     0
  list                   312                     0                     0
                     0
  list                   312                     0                     0
                     0
  list                   308                     0                    14
                     0
  list                   308                     8                     8
                     1
  list                   308                     0                     8
                     0
  list                   308                     0                     4
                     0
  list                   308                     0                     8
                     0
  list                   308                     0                     4
                     0
  list                   308                     0                     4
                     0
  list                   308                     0                     0
                     0
  list                   315                    44                     1
                    44
  list                   315                     0                     0
                    42
  list                   315                     0                     0
                    34
  list                   315                     0                     0
                    44
  list                   315                     0                     0
                    34
  list                   315                     0                     0
                    44
  list                   315                     0                     0
                    24
  list                   315                     0                     0
                    34
  list                   328                   616                    14
                    44
  list                   328                   336                     8
                    42
  list                   328                   272                     8
                    34
  list                   328                   176                     4
                    44
  list                   328                   272                     8
                    34
  list                   328                   176                     4
                    44
  list                   328                    96                     4
                    24
  list                   328                     0                     0
                    34
  list                   332                  1848                    42
                    44
  list                   332                  1848                    44
                    42
  list                   332                  1496                    44
                    34
  list                   332                  1496                    34
                    44
  list                   332                  1496                    44
                    34
  list                   332                  1496                    34
                    44
  list                   332                   816                    34
                    24
  list                   332                   816                    24
                    34
  @CHECKOUT-I, Total execution time (CPU/WALL):        0.15/       0.46 seconds.
--executable xsdcc finished with status     0 in        1.01 seconds (walltime).
 --invoking executable--
/home/nike/MRCC/dmrcc
 **********************************************************************
                          MRCC program system
 **********************************************************************
 
                              Written by
    Mihaly Kallay, Zoltan Rolik, Jozsef Csontos, Istvan Ladjanszki,
       Lorant Szegedy, Bence Ladoczki, Gyula Samu, Klara Petrov,
        Mate Farkas, Peter Nagy, David Mester, and Bence Hegely
 
        Department of Physical Chemistry and Materials Science
            Budapest University of Technology and Economics
                  Budapest P.O.Box 91, H-1521 Hungary
 
                              www.mrcc.hu

 ************************ 2018-04-04 22:22:41 *************************
 Executing goldstone...

 Generation of CC equations in terms of H and T...
 Generation of antisymmetrized Goldstone diagrams...
 Number of diagrams in T^1 equations:    15
 Number of diagrams in T^2 equations:    37
 Number of diagrams in T^3 equations:    47
 Translation of diagrams to factorized equations...
 Optimizing intermediate calculation...
 Optimizing right-hand EOMCC calculation...
 Optimizing left-hand EOMCC calculation...
 Optimizing density-matrix calculation...
 Optimizing perturbed lambda equations...
 Optimizing perturbed density calculation...
 Number of floating-point operations per iteration step:   1.5008E+07
 Probable CPU time per iteration step (hours):      0.00
 Required memory (Mbytes):      48.1
 Number of intermediates:                                 624
 Number of intermediates to be stored:                    179
 Length of intermediate file (Mbytes):       3.6

 ************************ 2018-04-04 22:23:07 *************************
 Executing xmrcc...

 **********************************************************************
 CC(                     3 ) calculation 
 
 
 Allocation of 100.0 Mbytes of memory...
 Number of spinorbitals:                    54
 Number of alpha electrons:                        3
 Number of beta electrons:                         2
 Spin multiplicity:                     2
 z-component of spin:  0.5
 Spatial symmetry:                      2
 Convergence criterion:  1.0E-10
 Symmetry of perturbation:                      2
 Construction of occupation graphs...
 Number of perturbed amplitudes: 
 Number of                     0 -fold excitations:                      0
 Number of                     1 -fold excitations:                     21
 Number of                     2 -fold excitations:                    693
 Number of                     3 -fold excitations:                   8605
 Total number of configurations:                   9319
 Number of ground state excitations: 
 Number of                     0 -fold excitations:                      1
 Number of                     1 -fold excitations:                     31
 Number of                     2 -fold excitations:                    737
 Number of                     3 -fold excitations:                   8505
 Total number of configurations:                   9274
 Calculation of coupling coefficients...
 Length of intermediate file (Mbytes):       5.8
 
 Calculation of the <K|exp(-T) dH/dx exp(T)|0> term...
 
 Calculation of the <0|(1+L) exp(-T) dH/dx exp(T)|K> term...
 
 ======================================================================
 
 Calculation of the <0|(1+L)[exp(-T) H exp(T), dT/dx]|K> term...
 
 Calculation of the <0|(1+L)[exp(-T){p+q-}exp(T), dT/dx]|0> term...
 
 ======================================================================
 
 
 
 Memory requirements /Mbyte/: 
               Minimal        Optimal
 Real*8:         11.2829        14.8579
 Integer:         8.6314
 Total:          19.9142        23.4893
 

 ************************ 2018-04-04 22:23:08 *************************
 Executing mrcc...

 **********************************************************************
 CCSDT analytic second derivative calculation                           
 
 
 OpenMP parallel version is running.
 Number of CPUs:  32
 Allocation of   14.9 Mbytes of memory...
 Number of spinorbitals:  54
 Number of alpha electrons:  3
 Number of beta  electrons:  2
 Spin multiplicity: 2
 z-component of spin:  0.5
 Spatial symmetry: 2
 Convergence criterion:  1.0E-10
 Symmetry of perturbation 1: 2
 Construction of occupation graphs...
 Number of excitations for irrep 1: 
 Number of 0-fold excitations: 1
 Number of 1-fold excitations: 31
 Number of 2-fold excitations: 737
 Number of 3-fold excitations: 8505
 Total number of determinants: 9274
 Number of excitations for irrep 2: 
 Number of 0-fold excitations: 0
 Number of 1-fold excitations: 21
 Number of 2-fold excitations: 693
 Number of 3-fold excitations: 8605
 Total number of determinants: 9319
 Calculation of coupling coefficients...
 Initial perturbed amplitudes are generated.
 Length of intermediate file (Mbytes):       5.8
 Reading integral list from unit 55...
 Sorting integrals...
 Sorting integrals...
 Sorting integrals...
 Sorting integrals...
 Derivative of reference energy  [au]:       0.000000000000
 Calculation of MP denominators...
 Correlation energy [au]:                 -0.10542793
 Derivative of correlation energy [au]:    0.00000000
 
 Calculation of the <K|exp(-T) dH/dx exp(T)|0> term...
 
 Calculation of the <0|(1+L) exp(-T) dH/dx exp(T)|K> term...
 
 Starting right-hand LR-CC iteration for root                      1 ...
 ======================================================================
 Norm of residual vector:     0.0000E+00      Convergence:   1.0000E+00
 CPU time [min]:     1.718                   Wall time [min]:     0.073
 
[...]
                    44
                     8                     4                     8
  list                   428                     0                     0
                    34
 G(Ab,Ic)
  G(Ab,Ic) a,b,c,i
                     1                     5                     8
  list                   429                  1548                    18
                    86
                     2                     6                     8
  list                   429                   960                    15
                    64
                     3                     7                     8
  list                   429                   680                    10
                    68
                     4                     8                     8
  list                   429                   368                     8
                    46
                     5                     1                     8
  list                   429                  1050                    10
                   105
                     6                     2                     8
  list                   429                   648                     8
                    81
                     7                     3                     8
  list                   429                   344                     4
                    86
                     8                     4                     8
  list                   429                   128                     2
                    64
 G(Ab,Ci)
  G(Ab,Ci) a,b,c,i
                     1                     5                     8
  list                   430                  1204                    14
                    86
                     2                     6                     8
  list                   430                   384                     6
                    64
                     3                     7                     8
  list                   430                   544                     8
                    68
                     4                     8                     8
  list                   430                   184                     4
                    46
                     5                     1                     8
  list                   430                   840                     8
                   105
                     6                     2                     8
  list                   430                   324                     4
                    81
                     7                     3                     8
  list                   430                   344                     4
                    86
                     8                     4                     8
  list                   430                     0                     0
                    64
 G(AB,CD)
  G(AB,CD) a,b,c,d
                     1                     5                     8
  list                   431                  1638                    39
                    42
                     2                     6                     8
  list                   431                  1110                    37
                    30
                     3                     7                     8
  list                   431                  1428                    42
                    34
                     4                     8                     8
  list                   431                   660                    30
                    22
                     5                     1                     8
  list                   431                  1638                    42
                    39
                     6                     2                     8
  list                   431                  1110                    30
                    37
                     7                     3                     8
  list                   431                  1428                    34
                    42
                     8                     4                     8
  list                   431                   660                    22
                    30
 G(ab,cd)
  G(ab,cd) a,b,c,d
                     1                     5                     8
  list                   432                  1848                    42
                    44
                     2                     6                     8
  list                   432                  1496                    44
                    34
                     3                     7                     8
  list                   432                  1496                    44
                    34
                     4                     8                     8
  list                   432                   816                    34
                    24
                     5                     1                     8
  list                   432                  1848                    44
                    42
                     6                     2                     8
  list                   432                  1496                    34
                    44
                     7                     3                     8
  list                   432                  1496                    34
                    44
                     8                     4                     8
  list                   432                   816                    24
                    34
 G(Ab,Cd)
  G(Ab,Cd) a,b,c,d
                     1                     5                     8
  list                   433                  9030                   105
                    86
                     2                     6                     8
  list                   433                  5184                    81
                    64
                     3                     7                     8
  list                   433                  5848                    86
                    68
                     4                     8                     8
  list                   433                  2944                    64
                    46
                     5                     1                     8
  list                   433                  9030                    86
                   105
                     6                     2                     8
  list                   433                  5184                    64
                    81
                     7                     3                     8
  list                   433                  5848                    68
                    86
                     8                     4                     8
  list                   433                  2944                    46
                    64
 D(I,J)  
 D(i,j)  
 PITERM.tmp does not exsit!
 skip reading
 Calculation of the contributions of <pq||rs> to dI(i,j)/dx
 required   0.0 seconds.
 Calculation of the contributions of <pq||rs> to dI(a,b)/dx
 required   0.0 seconds.
 Calculation of the contributions of <pq||rs> to dI(i,a)/dx
 required   0.0 seconds.
 First-order Z-vector equations are solved for 1 perturbation.
  Warning form lineq2 : the initial vector is zero.
 Convergence reached after   1 iterations.
        U*G(pq,rs) contribution is being calculated
             (Symmetry block 5, perturbation   1)

 CI/CC contribution to force constants 

        0.0000000000        0.0000000000        0.0000000000
        0.0000000000        0.0000000000        0.0000000000
        0.0000000000        0.0000000000        0.0000000000

 CI/CC contribution to dipole derivatives 

        0.0000000000        0.0000000000        0.0000000000
        0.0000000000        0.0000000000        0.0000000000
        0.0000000000        0.0000000000        0.0000000000
  @CHECKOUT-I, Total execution time (CPU/WALL):        0.04/       0.53 seconds.
--executable xsdcc finished with status     0 in        1.91 seconds (walltime).
 --invoking executable--
/home/nike/cfour_v2.00beta/bin/xanti
 @GETMEM-I,  Allocated   30517 MB of main memory.
  @CHECKOUT-I, Total execution time (CPU/WALL):        0.02/       0.25 seconds.
--executable xanti finished with status     0 in        0.38 seconds (walltime).
 --invoking executable--
/home/nike/cfour_v2.00beta/bin/xbcktrn
 @GETMEM-I,  Allocated   30517 MB of main memory.
  @CHECKOUT-I, Total execution time (CPU/WALL):        0.01/       0.02 seconds.
--executable xbcktrn finished with status     0 in        0.08 seconds (walltime).
 --invoking executable--
/home/nike/cfour_v2.00beta/bin/xvdint
 @GETMEM-I,  Allocated   30517 MB of main memory.
 One- and two-electron integral derivatives are calculated
 for UHF-CC/MBPT hessians and dipole derivatives.
 Spherical gaussians are used.
  Evaluation of 2el integral derivatives

                      Two-electron integral gradient
                      ------------------------------



 C #1       0.0000000000            0.0000000000            0.0000000000


  Evaluation of 2e integral derivatives required    0.08 seconds.
  contribution to Hessian
        0.0000000000        0.0000000000        0.0000000000
  @CHECKOUT-I, Total execution time (CPU/WALL):        0.07/       0.47 seconds.
--executable xvdint finished with status     0 in        0.50 seconds (walltime).
 --invoking executable--
/home/nike/cfour_v2.00beta/bin/xanti
 @GETMEM-I,  Allocated   30517 MB of main memory.
  antisym F
  antisym2 F
  antisym F
  antisym2 F
  @CHECKOUT-I, Total execution time (CPU/WALL):        0.03/       0.25 seconds.
--executable xanti finished with status     0 in        0.78 seconds (walltime).
 --invoking executable--
/home/nike/cfour_v2.00beta/bin/xbcktrn
 @GETMEM-I,  Allocated   30517 MB of main memory.
  @CHECKOUT-I, Total execution time (CPU/WALL):        0.01/       0.03 seconds.
--executable xbcktrn finished with status     0 in        0.07 seconds (walltime).
 --invoking executable--
/home/nike/cfour_v2.00beta/bin/xvdint
 @GETMEM-I,  Allocated   30517 MB of main memory.
 One- and two-electron integral derivatives are calculated
 for UHF-CC/MBPT hessians and dipole derivatives.
 Spherical gaussians are used.

                     Kinetic energy integral gradient
                     --------------------------------



 C #1       0.0000000000            0.0000000000            0.0000000000



                   Nuclear attraction integral gradient
                   ------------------------------------



 C #1       0.0000000000            0.0000000000            0.0000000000



                      Reorthonormalization gradient
                      -----------------------------



 C #1       0.0000000000            0.0000000000            0.0000000000



                     Kinetic energy integral Hessian
                     -------------------------------


           Symmetry 2

           C #1 x

 C #1 x    0.000000


           Symmetry 3

           C #1 y

 C #1 y    0.000000


           Symmetry 5

           C #1 z

 C #1 z    0.000000




           C #1 x      C #1 y      C #1 z




                   Nuclear attraction integral Hessian
                   -----------------------------------


           Symmetry 2

           C #1 x

 C #1 x    0.000000


           Symmetry 3

           C #1 y

 C #1 y    0.000000


           Symmetry 5

           C #1 z

 C #1 z    0.000000




           C #1 x      C #1 y      C #1 z




                Highest order reorthonormalization Hessian
                ------------------------------------------


           Symmetry 2

           C #1 x

 C #1 x    0.000000


           Symmetry 3

           C #1 y

 C #1 y    0.000000


           Symmetry 5

           C #1 z

 C #1 z    0.000000




           C #1 x      C #1 y      C #1 z




                Electronic contributions to dipole moment
                -----------------------------------------

                     All components zero by symmetry

  Conversion factor used: 1 a.u. =   2.54174691 Debye 



   Electronic contributions to static part of dipole moment derivatives
   --------------------------------------------------------------------


                     Total dipole moment derivatives
                     -------------------------------


           Symmetry 2
                              Ex

               C #1 x    -5.00000000

           Symmetry 3
                              Ey

               C #1 y    -5.00000000

           Symmetry 5
                              Ez

               C #1 z    -5.00000000



                       Ex          Ey          Ez

      C #1    x   -5.000000    0.000000    0.000000
      C #1    y    0.000000   -5.000000    0.000000
      C #1    z    0.000000    0.000000   -5.000000

  Evaluation of 1e integral derivatives required    0.06 seconds.
  Evaluation of 2el integral derivatives

                      Two-electron integral gradient
                      ------------------------------



 C #1       0.0000000000            0.0000000000            0.0000000000


  Evaluation of 2e integral derivatives required    0.02 seconds.

                            Molecular gradient
                            ------------------



 C #1       0.0000000000            0.0000000000            0.0000000000


  Molecular gradient norm 0.000E+00

                            Molecular hessian
                            -----------------


           Symmetry 2

           C #1 x

 C #1 x    0.000000


           Symmetry 3

           C #1 y

 C #1 y    0.000000


           Symmetry 5

           C #1 z

 C #1 z    0.000000




           C #1 x      C #1 y      C #1 z




                           Total dipole moment
                           -------------------

                     All components zero by symmetry

  Conversion factor used: 1 a.u. =   2.54174691 Debye 



                     Total dipole moment derivatives
                     -------------------------------


           Symmetry 2
                              Ex

               C #1 x     1.00000000

           Symmetry 3
                              Ey

               C #1 y     1.00000000

           Symmetry 5
                              Ez

               C #1 z     1.00000000



                       Ex          Ey          Ez

      C #1    x    1.000000    0.000000    0.000000
      C #1    y    0.000000    1.000000    0.000000
      C #1    z    0.000000    0.000000    1.000000

  @CHECKOUT-I, Total execution time (CPU/WALL):        0.08/       1.68 seconds.
--executable xvdint finished with status     0 in        1.96 seconds (walltime).
 --invoking executable--
/home/nike/cfour_v2.00beta/bin/xjoda
  @GTFLGS-W, Keyword #SCF_DAMPING not known and is ignored.
  @GTFLGS-I, Hessian will be transformed to curvilinear coordinates.
  @GTFLGS-W, Keyword #SCF_DAMPING not known and is ignored.
  @GTFLGS-I, Hessian will be transformed to curvilinear coordinates.
  igrd and ihes are                      0                     0
  fetching hessian                      9
  iavhes is                      0
  masses used (in AMU) in vibrational analysis: 
  12.000000000
                     Normal Coordinate Analysis
  ----------------------------------------------------------------
    Irreducible         Harmonic       Infrared        Type 
   Representation       Frequency      Intensity 
  ----------------------------------------------------------------
                       (cm-1)         (km/mol)
  ----------------------------------------------------------------
      ----                 0.0000        81.2390      TRANSLATION
      ----                 0.0000        81.2390      TRANSLATION
      ----                 0.0000        81.2390      TRANSLATION
  ----------------------------------------------------------------
 
 
                                   Normal Coordinates 




 C    
            Gradient vector in normal coordinate representation
         ----------------------------------------------------------
   i    W(I)     dE/dQ(i)     dE/dq      dE/dq     [dE/dQ(i)]/w(i)
                              (cm-1)      (eV)        (relative)
         ----------------------------------------------------------
         ----------------------------------------------------------
 
                      Normal modes in internal coordinates 
---------------------------------------------------------------------------
              0.000         0.000         0.000
---------------------------------------------------------------------------
           0.000000      0.000000      0.000000
---------------------------------------------------------------------------
 
  ----------------------------------------------------------------
                    Dipole Moment Function
                   (Normal Coordinate Basis)
  ----------------------------------------------------------------
    Mode     Symmetry    d(Mu(x))/dQ   d(Mu(y))/dQ   d(Mu(z))/dQ
  ----------------------------------------------------------------
  ----------------------------------------------------------------
---------------------------------------------------------------------------
------------------------------------------------------------
        Parameter                (MHz)                 (CM-1)
------------------------------------------------------------
 
           R6                0.000000E+00           0.000000E+00
           R5                0.000000E+00           0.000000E+00
           SI                            -.100000E+01
 
  A-reduced centrifugal distortion parameters (Ir representation) 
 
           DJ                0.000000E+00           0.000000E+00
           DK                0.000000E+00           0.000000E+00
           DJK               0.000000E+00           0.000000E+00
           DELJ              0.000000E+00           0.000000E+00
           DELK              0.000000E+00           0.000000E+00
           DELJK             0.000000E+00           0.000000E+00
           delJ              0.000000E+00           0.000000E+00
           delK              0.000000E+00           0.000000E+00
 
  S-reduced centrifugal distortion parameters (Ir representation) 
 
           DJ                0.000000E+00           0.000000E+00
           DK                0.000000E+00           0.000000E+00
           DJK               0.000000E+00           0.000000E+00
           D1                0.000000E+00           0.000000E+00
           D2                0.000000E+00           0.000000E+00
------------------------------------------------------------
  null vector returned from NORMAL
  null vector returned from NORMAL
  null vector returned from NORMAL
   Vibrational frequencies after rotational projection  of 
   Cartesian force constants: 
            1               0.0000 
            2               0.0000 
            3               0.0000 
  Zero-point energy:    0.0000 kcal/mol =    0.0000 kJ/mol =       0.000 cm-1 
 
 
  The total diagonal Born-Oppenheimer correction (DBOC) is:      0.0017009710 a.u.
  The total diagonal Born-Oppenheimer correction (DBOC) is:        373.319981 cm-1
  The total diagonal Born-Oppenheimer correction (DBOC) is:             4.466 kJ/mole
  readis is  F
 
  @CHECKOUT-I, Total execution time (CPU/WALL):        0.01/       2.01 seconds.
--executable xjoda finished with status     0 in        2.14 seconds (walltime).
  The final electronic energy is       -37.396212698381547 a.u. 
  This computation required                          371.90 seconds (walltime).
--- SharcNET Job Epilogue ---
Job completed successfully.
               jobid: 1540985
               resid: 3020118
         exit status: 0
      allocated time: 373.047
           user time: 2833.66
         system time: 784.83
peak rss=203993088; peak vsz=203993088 (bytes)
atime=373.047; utime=2833.66; stime=784.83; exit=0
