 --invoking executable--
/project1/nike/cfour_v2.00beta_May2019xnmol_noLABBASIS/bin/xjoda


   *************************************************************************
         <<<     CCCCCC     CCCCCC   |||     CCCCCC     CCCCCC   >>>
       <<<      CCC        CCC       |||    CCC        CCC         >>>
      <<<      CCC        CCC        |||   CCC        CCC            >>>
    <<<        CCC        CCC        |||   CCC        CCC              >>>
      <<<      CCC        CCC        |||   CCC        CCC            >>>
       <<<      CCC        CCC       |||    CCC        CCC         >>>
         <<<     CCCCCC     CCCCCC   |||     CCCCCC     CCCCCC   >>>
   *************************************************************************

     ****************************************************************
     * CFOUR Coupled-Cluster techniques for Computational Chemistry *
     ****************************************************************
 

   Department of Chemistry                Institut fuer Physikalische Chemie
   University of Texas at Austin          Universitaet Mainz
   Austin, TX  78712, USA                 D-55099 Mainz, Germany
 
                       Version 2.00beta
 
                     wob144                                            
                     Tue Mar 10 00:13:15 EDT 2020                      
                     integer*8 version is running
 
********************************************************************************
*                          Input from ZMAT file                                *
********************************************************************************
TITLE                                                                           
C                                                                               
S 1 R                                                                           
X 1 RDUM 2 A90                                                                  
S 1 R 3 A90 2 D180                                                              
                                                                                
R=2.93398878109                                                                 
RDUM=1                                                                          
A90=90                                                                          
D180=180                                                                        
                                                                                
*ACES2(CALC=CCSD(T)                                                             
UNITS=BOHR                                                                      
#GEOM=1.5526*10/5.29177210903                                                   
#COORD=CARTESIAN                                                                
COORD=INTERNAL                                                                  
PRINT=4                                                                         
JODA_PRINT=4                                                                    
INPUT_MRCC=OFF                                                                  
#CC_PROG=MRCC                                                                   
#FROZEN_CORE=ON                                                                 
DROPMO=1>11                                                                     
CONTRACTION=GENERAL                                                             
#CONTRACTION=SEGMENTED                                                          
RELATIVISTIC=OFF                                                                
#EXCITE=EOMEE                                                                   
#ESTATE_CONV=5                                                                  
#ESTATE_SYM=2/2/2/2/2/2/2/2                                                     
XFORM_TOL=18                                                                    
SAVE_INTS=ON                                                                    
SCF_EXPORDER=6                                                                  
SCF_EXPSTART=5                                                                  
#SCF_DAMPING=1000                                                               
SCF_EXTRAPOLATION=ON                                                            
SCF_CONV=11                                                                     
SCF_MAXCYC=99999                                                                
CC_CONV=9                                                                       
CC_MAXCYC=999                                                                   
T3_EXTRAPOL=ON                                                                  
REFERENCE=ROHF                                                                  
#SYMMETRY=OFF                                                                   
#HFSTABILITY=FOLLOW                                                             
CHARGE=+1                                                                       
MULT=2                                                                          
ABCDTYPE=STANDARD                                                               
#OCCUPATION=3-2-2-0-1-0-0-0/3-1-1-0-1-0-0-0                                     
MEM=4                                                                           
MEM_UNIT=GB                                                                     
BASIS=SPECIAL)                                                                  
                                                                                
C:def2-TZVPP                                                                    
S:def2-TZVPP                                                                    
S:def2-TZVPP                                                                    
                                                                                
********************************************************************************
  @GTFLGS-W, Keyword #GEOM not known and is ignored.
  @GTFLGS-W, Keyword #COORD not known and is ignored.
  @GTFLGS-W, Keyword #CC_PROG not known and is ignored.
  @GTFLGS-W, Keyword #FROZEN_CORE not known and is ignored.
  @GTFLGS-W, Keyword #CONTRACTION not known and is ignored.
  @GTFLGS-W, Keyword #EXCITE not known and is ignored.
  @GTFLGS-W, Keyword #ESTATE_CONV not known and is ignored.
  @GTFLGS-W, Keyword #ESTATE_SYM not known and is ignored.
  @GTFLGS-W, Keyword #SCF_DAMPING not known and is ignored.
  @GTFLGS-W, Keyword #SYMMETRY not known and is ignored.
  @GTFLGS-W, Keyword #HFSTABILITY not known and is ignored.
  @GTFLGS-W, Keyword #OCCUPATION not known and is ignored.
    -------------------------------------------------------------------
                    CFOUR Control Parameters 
    -------------------------------------------------------------------
        External           Internal           Value            Units
          Name               Name
    -------------------------------------------------------------------
       ABCDTYPE             IABCDT         STANDARD     [  0]   ***   
       ANHARMONIC           IANHAR         OFF          [  0]   ***   
       ANH_ALGORIT          IANALG         STANDARD     [  0]   ***   
       ANH_DERIVAT          IANDER         SECOND       [  1]   ***   
       ANH_STEPSIZ          ICUBST             50000          x 10-6  
       ANH_SYMMETR          IANHSM         ABELIAN      [  0]   ***   
       AO_LADDERS           IAOLAD         SINGLEPASS   [  1]   ***   
       BASIS                IBASIS         SPECIAL      [  0]   ***   
       BREIT                IBREIT         OFF          [  0]   ***   
       BRUCK_CONV           IBRTOL          10D-  4             ***   
       BRUECKNER            IBRKNR             OFF      [  0]   ***   
       BUFFERSIZE           IBUFFS            600               ***   
       CACHE_RECS           ICHREC             10               ***   
       CALCLEVEL            ICLLVL           CCSD(T)    [ 22]   ***   
       CCORBOPT             ICCORB             OFF      [  0] x 0.01  
       CC_CONV              ICCCNV          10D-  9             ***   
       CC_EXPORDER          ICCEOR              5               ***   
       CC_EXTRAPOL          ICCEXT             DIIS     [  1]   ***   
       CC_MAXCYC            ICCCYC            999              cycles 
       CC_PROGRAM           ICCPRO         VCC          [  0]   ***   
       CHARGE               ICHRGE              1               ***   
       CHOLESKY             ICHOLE         OFF          [  0]   ***   
       CIS_CONV             ICISTL              5               ***   
       COMM_SIZE            IPSIZE            ***               ***   
       CONSTANT             ICONST         OLD          [  1]   ***   
       CONTINUUM            ICONTU         NONE         [  0]   ***   
       CONTRACTION          ICNTYP          GENERAL     [  1]   ***   
       COORDINATES          ICOORD         INTERNAL     [  0]   ***   
       CPHF_CONVER          ICPHFT          10D- 16             ***   
       CPHF_MAXCYC          ICPHFC             64              cycles 
       CUBIC                ICUBIC         OFF          [  0]   ***   
       CURVILINEAR          ICURVY            OFF       [  0]   ***   
       DBOC                 IDBOC          OFF          [  0]   ***   
       DCT                  IDCT           OFF          [  0]   ***   
       DERIV_LEV            IDRLVL            ZERO      [  0]   ***   
       DIAG_MRCC            IEOMST          10D-  0             ***   
       DIFF_TYPE            IDIFTY         RELAXED      [  0]   ***   
       DIRECT               IDIRCT         OFF          [  0]   ***   
       DROPMO               IDRPMO A   1,  2,  3,  4,  5,  6,  7,  8,
                                       9, 10, 11,
                                   B   1,  2,  3,  4,  5,  6,  7,  8,
                                       9, 10, 11,
       ECP                  IECP           OFF          [  0]   ***   
       EIGENVECTOR          IVEC                1               ***   
       EL_ANHARM            IELANH         OFF          [  0]   ***   
       EOMFOLLOW            IEOMSR         ENERGY       [  0]   ***   
       EOM_MRCC             IMRCCE         NEW          [  1]   ***   
       EOM_NONIT            EOMNON         OFF          [  0]   ***   
       EOM_NSING            IEOMSI          10D-  0             ***   
       EOM_NSTATES          IMRCCD         DAVIDSON     [  0]   ***   
       EOM_NTRIP            IEOMTR          10D-  0             ***   
       EOM_ORDER            IEXORD         ENERGY       [  0]   ***   
       ESTATE_CONV          IEXTOL          10D-  5             ***   
       ESTATE_DIAG          IEXDIG         ITERATIVE    [  0]   ***   
       ESTATE_LOCK          IESLOC         ON           [  1]   ***   
       ESTATE_MAXC          IEXMXC             20               ***   
       ESTATE_PROP          IEXPRP         OFF          [  0]   ***   
       EVAL_HESS            IRECAL              0            # of cyc.
       EXCITATION           IEXCIT              0               ***   
       EXCITE               IEXCIT         NONE         [  0]   ***   
       FCGRADNEW            IFCGNW         OFF          [  0]   ***   
       FC_FIELD             IFINFC              0             x 10-6  
       FD_CALTYPE           IFDCAL         GRADONLY     [  0]   ***   
       FD_PROJECT           IFDPRJ         OFF          [  1]   ***   
       FD_STEPSIZE          IDISFD              0            10-4 bohr
       FD_USEGROUP          IFDGRP         FULL         [  0]   ***   
       FILE_RECSIZ          IFLREC              4096           words  
       FINITE_PERT          IFIPER              0             x 10-6  
       FIXGEOM              IFIXGM         OFF          [  0]   ***   
       FOCK                 IFOCK          AO           [  1]   ***   
       FREQ_ALGORI          IVIALG         STANDARD     [  0]   ***   
       FROZEN_CORE          IFROCO         OFF          [  0]   ***   
       FROZEN_VIRT          IFROVI         OFF          [  0]   ***   
       GAMMA_ABCD           IGABCD         STORE        [  0]   ***   
       GAMMA_ABCI           IGABCI         STORE        [  0]   ***   
       GENBAS_1             IGNBS1              0               ***   
       GENBAS_2             IGNBS2              0               ***   
       GENBAS_3             IGNBS3              0               ***   
       GENBAS_4             IGNBS4              0               ***   
       GEO_CONV             ICONTL              5              H/bohr 
       GEO_MAXCYC           IOPTCY             50               ***   
       GEO_MAXSTEP          IMXSTP            300            millibohr
       GEO_METHOD           INR            SINGLE_POINT [  5]   ***   
       GIAO                 IGIAO          OFF          [  1]   ***   
       GIMIC                IGIMIC         OFF          [  0]   ***   
       GRID                 IGRID          OFF          [  0]   ***   
       GRID_ALGO            IGALGO         SERIAL       [  0]   ***   
       GUESS                IGUESS            MOREAD    [  0]   ***   
       HBAR                 IHBAR              OFF      [  0]   ***   
       HESS_TYPE            IHESTP         SCF          [  0]   ***   
       HF2_FILE             IHF2Fl         USE          [  1]   ***   
       HFSTABILITY          ISTABL         OFF          [  0]   ***   
       INCORE               INCORE             OFF      [  0]   ***   
       INPUT_MRCC           IMRCC          OFF          [  0]   ***   
       INTEGRALS            INTTYP             VMOL     [  1]   ***   
       JODA_PRINT           IJPRNT              4               ***   
       LINDEP_TOL           ILINDP              8               ***   
       LINEQ_CONV           IZTACN          10D-  7           cycles  
       LINEQ_EXPOR          ILMAXD              5               ***   
       LINEQ_MAXCY          ILMAXC             50               ***   
       LINEQ_TYPE           ILTYPE         DIIS         [  1]   ***   
       LOCK_ORBOCC          ILOCOC             OFF      [  0]   ***   
       MEMORY_SIZE          IMEMSZ         500000000           words  
       MEM_UNIT             IMEMU          GB           [  3]   ***   
       MRCC                 IMRCCC         OFF          [  0]   ***   
       MULTIPLICTY          IMULTP              2               ***   
       NEGEVAL              IDIE             ABORT      [  0]   ***   
       NEWNORM              INEWNO         OFF          [  0]   ***   
       NON-HF               INONHF              ON      [  1]   ***   
       NTOP_TAMP            ITOPT2             15               ***   
       NUC_MODEL            INUCMO         POINT        [  0]   ***   
       OCCUPATION           IOCCU   ESTIMATED BY SCF 
       OPEN-SHELL           IOPEN          SPIN-ORBITAL [  0]   ***   
       ORBITALS             IORBTP         SEMICANONICAL[  1]   ***   
       PARALLEL             IPARAL         ON           [  1]   ***   
       PARA_INT             IPINTS         ON           [  1]   ***   
       PARA_PRINT           IPPRIN              0               ***   
       PERT_ORB             IPTORB         STANDARD     [  0]   ***   
       POINTS               IGRDFD              0               ***   
       PRINT                IPRNT               4               ***   
       PROPS                IPROPS             OFF      [  0]   ***   
       PROP_INTEGR          IINTYP         INTERNAL     [  0]   ***   
       PSI                  IPSI           OFF          [  0]   ***   
       QUARTIC              IQUART         OFF          [  0]   ***   
       RAMAN_INT            IRAMIN         OFF          [  0]   ***   
       RAMAN_ORB            IRAMRE         UNRELAXED    [  0]   ***   
       RDO                  IRDOFM             OFF      [  0]   ***   
       REFERENCE            IREFNC             ROHF     [  2]   ***   
       RELATIVIST           IRELAT         OFF          [  0]   ***   
       RELAX_DENS           IRDENS             OFF      [  0]   ***   
       RESET_FLAGS          IRESET             OFF      [  0]   ***   
       RESTART_CC           ICCRES         OFF          [  0]   ***   
       ROT_EVEC             ROTVEC              0               ***   
       SAVE_INTS            ISVINT              ON      [  1]   ***   
       SCALE_ON             ISTCRT              0               ***   
       SCF_CONV             ISCFCV          10D- 11             ***   
       SCF_DAMPING          IDAMP               0             x 10-3  
       SCF_EXPORDE          IRPPOR              6               ***   
       SCF_EXPSTAR          IRPPLS              5               ***   
       SCF_EXTRAPO          IRPP                ON      [  1]   ***   
       SCF_MAXCYC           ISCFCY            ***              cycles 
       SCF_NOSTOP           ISCFST         OFF          [  0]   ***   
       SCF_PRINT            ISCFPR              0               ***   
       SD_FIELD             IFINSD              0             x 10-6  
       SEQUENCE             ISEQUE         OFF          [  0]   ***   
       SOPERT               IPERSO         OFF          [  0]   ***   
       SPHERICAL            IDFGHI             ON       [  1]   ***   
       SPINORBIT            ISOCAL         OFF          [  0]   ***   
       SPINROTATIO          ISRCON         OFF          [  0]   ***   
       SPIN_FLIP            ISPFLP         OFF          [  0]   ***   
       SPIN_ORBIT           ISPORB         OFF          [  0]   ***   
       SPIN_SCAL            ISCSMP         OFF          [  0]   ***   
       SUBGROUP             ISUBGP         DEFAULT      [  0]   ***   
       SUBGRPAXIS           ISBXYZ         X            [  0]   ***   
       SYMMETRY             ISYM             ON         [  0]   ***   
       SYM_CHECK            ISYMCK         OVERRIDE     [  1]   ***   
       T3_EXTRAPOL          IT3EXT         ON           [  1]   ***   
       TAMP_SUM             IEVERY              5               ***   
       TESTSUITE            ITESTS         OFF          [  0]   ***   
       THERMOCH             ITHERM         OFF          [  0]   ***   
       TOL_CHOLESK          ITOLCH          10D-  4             ***   
       TRANGRAD             IRESRM         OFF          [  0]   ***   
       TRANS_INV            ITRAIN         USE          [  0]   ***   
       TREAT_PERT           ITREAT         SIMULTANEOUS [  0]   ***   
       UIJ_THRESHO          IUIJTH              1               ***   
       UNITS                IUNITS         BOHR         [  1]   ***   
       UNOS                 IUNOS          OFF          [  0]   ***   
       UPDATE_HESS          IHUPDT         ON           [  1]   ***   
       VIBPHASE             ISETPH         STANDARD     [  0]   ***   
       VIBRATION            IVIB              NO        [  0]   ***   
       VIB_ALGORIT          IGEALG         STANDARD     [  0]   ***   
       VNATORB              IVNORB         OFF          [  0]   ***   
       VTRAN                IVTRAN         FULL/PARTIAL [  0]   ***   
       XFIELD               IXEFLD              0             x 10-6  
       XFORM_TOL            IXFTOL          10D- 18             ***   
       YFIELD               IYEFLD              0             x 10-6  
       ZFIELD               IZEFLD              0             x 10-6  
    -------------------------------------------------------------------
   4 entries found in Z-matrix 
   Job Title : TITLE                                                                           
 Variable names read by FETCHZ
  1           
  2           
  3           
  4 R         
  5           
  6           
  7 RDUM      
  8 A90       
  9           
 10 R         
 11 A90       
 12 D180      
 Atomic symbols read by FETCHZ
  1 C    
  2 S    
  3 X    
  4 S    
 Connectivity matrix read by FETCHZ
  1   0
  2   0
  3   0
  4   1
  5   0
  6   0
  7   1
  8   2
  9   0
 10   1
 11   3
 12   2
   There are  4 unique internal coordinates.
   Of these,  0 will be optimized.
   User supplied Z-matrix: 
--------------------------------------------------------------------------------
       SYMBOL    BOND      LENGTH    ANGLE     ANGLE     DIHED     ANGLE
                  TO      (ANGST)    WRT      (DEG)      WRT      (DEG)
--------------------------------------------------------------------------------
        C    
        S          1         R    
        X          1         RDUM       2        A90  
        S          1         R          3        A90        2        D180 
                  *Initial values for internal coordinates* 
                      Name             Value
                        R               2.9339887811
                        RDUM            1.0000000000
                        A90            90.0000000000
                        D180          180.0000000000
--------------------------------------------------------------------------------
  1  C          6    12.00000
  2  S         16    31.97207
  3  X          0     0.00000
  4  S         16    31.97207
   12.0000000000
   31.9720707000
    0.0000000000
   31.9720707000
 After translation to center of mass coordinates 
        0.000000000000    0.000000000000    0.000000000000
        0.000000000000    0.000000000000    2.933988781090
        1.000000000000    0.000000000000    0.000000000000
        0.000000000000    0.000000000000   -2.933988781090
  Inertia tensor (amu*bohr**2)
  550.44972    0.00000    0.00000
    0.00000  550.44972    0.00000
    0.00000    0.00000    0.00000
    Inertia tensor:
      550.449723686813    0.000000000000    0.000000000000
        0.000000000000  550.449723686813    0.000000000000
        0.000000000000    0.000000000000    0.000000000000
    Principal axis orientation for molecular system: 
        0.000000000000    0.000000000000    0.000000000000
        0.000000000000    0.000000000000   -2.933988781090
        0.707106781187    0.707106781187    0.000000000000
        0.000000000000    0.000000000000    2.933988781090
    Diagonalized inertia tensor:
      550.449723686813    0.000000000000    0.000000000000
        0.000000000000  550.449723686813    0.000000000000
        0.000000000000    0.000000000000    0.000000000000
    Eigenvectors of inertia tensor: 
        0.707106781187    0.707106781187    0.000000000000
       -0.707106781187    0.707106781187    0.000000000000
        0.000000000000    0.000000000000   -1.000000000000
 factor:   60.1997200000000     
   Rotational constants (in cm-1): 
          0.1093646112             0.1093646112
   Rotational constants (in MHz): 
       3278.6690194377          3278.6690194377
  @SYMMETRY-I, Handedness of inertial frame:-1.00000
  @SYMMETRY-I, Sense of inertial frame y-axis will be changed.
  @SYMMETRY-I, The symmetry group is 2-fold degenerate.
  @SYMMETRY-I, The molecule belongs to a point group with doubly degenerate representations.
  @SYMMETRY-I, The molecule is linear.
   Principal axis orientation for molecule:
        0.000000000000    0.000000000000    0.000000000000
        0.000000000000    0.000000000000   -2.933988781090
        0.707106781187   -0.707106781187    0.000000000000
        0.000000000000    0.000000000000    2.933988781090
   Reflection in plane  3 is a valid symmetry operation.
   Rotation about  3 is a valid symmetry operation 
   Reflection in plane  2 is a valid symmetry operation.
   Rotation about  2 is a valid symmetry operation 
   Reflection in plane  1 is a valid symmetry operation.
   Rotation about  1 is a valid symmetry operation 
   The molecule possesses an inversion center. 
  Symmetry bits:    7   7   1
********************************************************************************
   The full molecular point group is DXh .
   The largest Abelian subgroup of the full molecular point group is D2h .
   The computational point group is D2h .
********************************************************************************
--------------------------------------------------------------------------------
   Analysis of internal coordinates specified by Z-matrix 
--------------------------------------------------------------------------------
   *The nuclear repulsion energy is  109.066538380258379 a.u.
   *There are   2 degrees of freedom within the tot. symm. molecular subspace.
   *Z-matrix requests optimization of   0 coordinates.
   *The optimization is constrained.
   *The following   1 parameters can have non-zero 
    derivatives within the totally symmetric subspace:
             R    [ 4]
   *The following   0 parameters are to be optimized:

   *The following coordinates must be varied in an  unconstrained optimization.
             R    [ 4]
--------------------------------------------------------------------------------
 ----------------------------------------------------------------
 Z-matrix   Atomic            Coordinates (in bohr)
  Symbol    Number           X              Y              Z
 ----------------------------------------------------------------
     C         6         0.00000000     0.00000000     0.00000000
     S        16         0.00000000     0.00000000    -2.93398878
     X         0         0.70710678    -0.70710678     0.00000000
     S        16         0.00000000     0.00000000     2.93398878
 ----------------------------------------------------------------
   Interatomic distance matrix (Angstroms) 
 
                 C             S             X             S    
                [ 1]        [ 2]        [ 3]        [ 4]
  C    [ 1]     0.00000
  S    [ 2]     1.55260     0.00000
  X    [ 3]     0.52918     1.64030     0.00000
  S    [ 4]     1.55260     3.10520     1.64030     0.00000
  Inertia tensor (amu*bohr**2)
  550.44972    0.00000    0.00000
    0.00000  550.44972    0.00000
    0.00000    0.00000    0.00000
   Rotational constants (in cm-1): 
          0.1093646112             0.0000000000
   Rotational constants (in MHz): 
       3278.6690194377             0.0000000000
  @GTFLGS-W, Keyword #GEOM not known and is ignored.
  @GTFLGS-W, Keyword #COORD not known and is ignored.
  @GTFLGS-W, Keyword #CC_PROG not known and is ignored.
  @GTFLGS-W, Keyword #FROZEN_CORE not known and is ignored.
  @GTFLGS-W, Keyword #CONTRACTION not known and is ignored.
  @GTFLGS-W, Keyword #EXCITE not known and is ignored.
  @GTFLGS-W, Keyword #ESTATE_CONV not known and is ignored.
  @GTFLGS-W, Keyword #ESTATE_SYM not known and is ignored.
  @GTFLGS-W, Keyword #SCF_DAMPING not known and is ignored.
  @GTFLGS-W, Keyword #SYMMETRY not known and is ignored.
  @GTFLGS-W, Keyword #HFSTABILITY not known and is ignored.
  @GTFLGS-W, Keyword #OCCUPATION not known and is ignored.
  There are  115 basis functions.
 @GEOPT-W, Archive file not created for single-point calculation.
  @CHECKOUT-I, Total execution time (CPU/WALL):        0.20/       0.38 seconds.
--executable xjoda finished with status     0 in        0.43 seconds (walltime).
 --invoking executable--
/project1/nike/cfour_v2.00beta_May2019xnmol_noLABBASIS/bin/xvmol
Running with 1 threads/proc

********************************************************************************
                   INPUT FROM MOL FILE                                          
********************************************************************************
INTGRL        1    0    1    0    0    0    0    0    0
         *** CFOUR Program System (Release V0.1) *** 
TITLE
    2    3 X  Y   Z   0.10E-08              0    0
   9999.00      3.00
          6.00000000    1    4    1    1    1    1
C #1   0.000000000000000   0.000000000000000   0.000000000000000
   11    5
   13575.3496820000       2.224581435200000E-004  0.000000000000000E+000
  0.000000000000000E+000  0.000000000000000E+000  0.000000000000000E+000
   2035.23336800000       1.723273825200000E-003  0.000000000000000E+000
  0.000000000000000E+000  0.000000000000000E+000  0.000000000000000E+000
   463.225623590000       8.925571531400001E-003  0.000000000000000E+000
  0.000000000000000E+000  0.000000000000000E+000  0.000000000000000E+000
   131.200195980000       3.572798450200000E-002  0.000000000000000E+000
  0.000000000000000E+000  0.000000000000000E+000  0.000000000000000E+000
   42.8530158910000       0.110762599310000       0.000000000000000E+000
  0.000000000000000E+000  0.000000000000000E+000  0.000000000000000E+000
   15.5841857660000       0.242956276260000       0.000000000000000E+000
  0.000000000000000E+000  0.000000000000000E+000  0.000000000000000E+000
   6.20671385080000       0.000000000000000E+000  0.414402634480000     
  0.000000000000000E+000  0.000000000000000E+000  0.000000000000000E+000
   2.57648965270000       0.000000000000000E+000  0.237449686550000     
  0.000000000000000E+000  0.000000000000000E+000  0.000000000000000E+000
  0.576963394190000       0.000000000000000E+000  0.000000000000000E+000
   1.00000000000000       0.000000000000000E+000  0.000000000000000E+000
  0.229728313580000       0.000000000000000E+000  0.000000000000000E+000
  0.000000000000000E+000   1.00000000000000       0.000000000000000E+000
  9.516444002799999E-002  0.000000000000000E+000  0.000000000000000E+000
  0.000000000000000E+000  0.000000000000000E+000   1.00000000000000     
    6    3
   34.6972322440000       5.333365780500000E-003  0.000000000000000E+000
  0.000000000000000E+000
   7.95826228260000       3.586410909200000E-002  0.000000000000000E+000
  0.000000000000000E+000
   2.37808268830000       0.142158733290000       0.000000000000000E+000
  0.000000000000000E+000
  0.814332081830000       0.342704718450000       0.000000000000000E+000
  0.000000000000000E+000
  0.288875472530000       0.000000000000000E+000  0.464458224330000     
  0.000000000000000E+000
  0.100568236710000       0.000000000000000E+000  0.000000000000000E+000
  0.249557898740000     
    2    2
   1.09700000000000        1.00000000000000       0.000000000000000E+000
  0.318000000000000       0.000000000000000E+000   1.00000000000000     
    1    1
  0.761000000000000        1.00000000000000     
         16.00000000    1    4    1    1    1    1
S #2   0.000000000000000   0.000000000000000  -2.933988781090000
   14    5
   60700.9281040000       5.469594422500000E-004  0.000000000000000E+000
  0.000000000000000E+000  0.000000000000000E+000  0.000000000000000E+000
   9102.61068540000       4.229722455700000E-003  0.000000000000000E+000
  0.000000000000000E+000  0.000000000000000E+000  0.000000000000000E+000
   2071.41660090000       2.174782415900000E-002  0.000000000000000E+000
  0.000000000000000E+000  0.000000000000000E+000  0.000000000000000E+000
   586.024768210000       8.510005358900000E-002  0.000000000000000E+000
  0.000000000000000E+000  0.000000000000000E+000  0.000000000000000E+000
   190.553950210000       0.247991284590000       0.000000000000000E+000
  0.000000000000000E+000  0.000000000000000E+000  0.000000000000000E+000
   67.6303842600000       0.467036404060000       0.000000000000000E+000
  0.000000000000000E+000  0.000000000000000E+000  0.000000000000000E+000
   25.1273069050000       0.364345875500000       0.000000000000000E+000
  0.000000000000000E+000  0.000000000000000E+000  0.000000000000000E+000
   112.574630100000       0.000000000000000E+000  2.167004024000000E-002
  0.000000000000000E+000  0.000000000000000E+000  0.000000000000000E+000
   34.7955542170000       0.000000000000000E+000  9.360230176000001E-002
  0.000000000000000E+000  0.000000000000000E+000  0.000000000000000E+000
   6.51155562150000       0.000000000000000E+000 -0.260680014220000     
  0.000000000000000E+000  0.000000000000000E+000  0.000000000000000E+000
   3.23990322610000       0.000000000000000E+000  0.000000000000000E+000
   1.28420894350000       0.000000000000000E+000  0.000000000000000E+000
   1.54771608810000       0.000000000000000E+000  0.000000000000000E+000
  0.660364165840000       0.000000000000000E+000  0.000000000000000E+000
  0.405410301120000       0.000000000000000E+000  0.000000000000000E+000
  0.000000000000000E+000   1.00000000000000       0.000000000000000E+000
  0.145506510590000       0.000000000000000E+000  0.000000000000000E+000
  0.000000000000000E+000  0.000000000000000E+000   1.00000000000000     
    9    5
   564.367160270000       2.479679631700000E-003  0.000000000000000E+000
  0.000000000000000E+000  0.000000000000000E+000  0.000000000000000E+000
   133.426243790000       1.967793025000000E-002  0.000000000000000E+000
  0.000000000000000E+000  0.000000000000000E+000  0.000000000000000E+000
   42.4682711890000       8.998000825800000E-002  0.000000000000000E+000
  0.000000000000000E+000  0.000000000000000E+000  0.000000000000000E+000
   15.6165275800000       0.257058805750000       0.000000000000000E+000
  0.000000000000000E+000  0.000000000000000E+000  0.000000000000000E+000
   6.10939884690000       0.435151672920000       0.000000000000000E+000
  0.000000000000000E+000  0.000000000000000E+000  0.000000000000000E+000
   2.44041601980000       0.000000000000000E+000  0.348832405950000     
  0.000000000000000E+000  0.000000000000000E+000  0.000000000000000E+000
  0.838822012960000       0.000000000000000E+000  0.000000000000000E+000
   1.00000000000000       0.000000000000000E+000  0.000000000000000E+000
  0.312887469000000       0.000000000000000E+000  0.000000000000000E+000
  0.000000000000000E+000   1.00000000000000       0.000000000000000E+000
  0.107701090040000       0.000000000000000E+000  0.000000000000000E+000
  0.000000000000000E+000  0.000000000000000E+000   1.00000000000000     
    3    3
  0.273000000000000        1.00000000000000       0.000000000000000E+000
  0.000000000000000E+000
   3.75600000000000       0.000000000000000E+000   1.00000000000000     
  0.000000000000000E+000
  0.812000000000000       0.000000000000000E+000  0.000000000000000E+000
   1.00000000000000     
    1    1
  0.557000000000000        1.00000000000000     
FINISH
                                                                                
********************************************************************************

ONE- AND TWO-ELECTRON INTEGRALS OVER SYMMETRY-ADAPTED AOS ARE CALCULATED.


    BASIS FUNCTION NOT NORMALIZED:
    CENTER (AS ORDERED IN MOL FILE): ?
    ANGULAR MOMENTUM TYPE:           S
    OFFSET WITHIN ANGULAR MOMENTUM:  1
    <CHI|CHI>:                       0.1345548646

    BASIS FUNCTION NOT NORMALIZED:
    CENTER (AS ORDERED IN MOL FILE): ?
    ANGULAR MOMENTUM TYPE:           S
    OFFSET WITHIN ANGULAR MOMENTUM:  2
    <CHI|CHI>:                       0.3991162928

    BASIS FUNCTION NOT NORMALIZED:
    CENTER (AS ORDERED IN MOL FILE): ?
    ANGULAR MOMENTUM TYPE:           P
    OFFSET WITHIN ANGULAR MOMENTUM:  1
    <CHI|CHI>:                       0.2216950870

    BASIS FUNCTION NOT NORMALIZED:
    CENTER (AS ORDERED IN MOL FILE): ?
    ANGULAR MOMENTUM TYPE:           P
    OFFSET WITHIN ANGULAR MOMENTUM:  2
    <CHI|CHI>:                       0.2157214421

    BASIS FUNCTION NOT NORMALIZED:
    CENTER (AS ORDERED IN MOL FILE): ?
    ANGULAR MOMENTUM TYPE:           P
    OFFSET WITHIN ANGULAR MOMENTUM:  3
    <CHI|CHI>:                       0.0622791448

    BASIS FUNCTION NOT NORMALIZED:
    CENTER (AS ORDERED IN MOL FILE): ?
    ANGULAR MOMENTUM TYPE:           S
    OFFSET WITHIN ANGULAR MOMENTUM:  1
    <CHI|CHI>:                       1.0903803538

    BASIS FUNCTION NOT NORMALIZED:
    CENTER (AS ORDERED IN MOL FILE): ?
    ANGULAR MOMENTUM TYPE:           S
    OFFSET WITHIN ANGULAR MOMENTUM:  2
    <CHI|CHI>:                       0.0465339884

    BASIS FUNCTION NOT NORMALIZED:
    CENTER (AS ORDERED IN MOL FILE): ?
    ANGULAR MOMENTUM TYPE:           S
    OFFSET WITHIN ANGULAR MOMENTUM:  3
    <CHI|CHI>:                       3.6198277538

    BASIS FUNCTION NOT NORMALIZED:
    CENTER (AS ORDERED IN MOL FILE): ?
    ANGULAR MOMENTUM TYPE:           P
    OFFSET WITHIN ANGULAR MOMENTUM:  1
    <CHI|CHI>:                       0.5052028598

    BASIS FUNCTION NOT NORMALIZED:
    CENTER (AS ORDERED IN MOL FILE): ?
    ANGULAR MOMENTUM TYPE:           P
    OFFSET WITHIN ANGULAR MOMENTUM:  2
    <CHI|CHI>:                       0.1216840474
CARTESIAN GAUSSIANS ARE USED.

2 TYPES OF ATOMS
3 SYMMETRY OPERATIONS

REFLECTION IN THE YZ-PLANE
REFLECTION IN THE XZ-PLANE
REFLECTION IN THE XY-PLANE

INTEGRALS LESS THAN 1e-14 ARE NEGLECTED.

ATOMIC TYPE NUMBER 1:
---------------------

    NUCLEAR CHARGE:                       6
    NUMBER OF SYMMETRY INDEPENDENT ATOMS: 1
    HIGHEST ORBITAL TYPE:                 F

    1 GROUPS OF CGTOS OF S TYPE
    1 GROUPS OF CGTOS OF P TYPE
    1 GROUPS OF CGTOS OF D TYPE
    1 GROUPS OF CGTOS OF F TYPE

    NUCLEAR COORDINATES (IN A.U.) ARE:

    C #1   0.000000000000000   0.000000000000000   0.000000000000000

ATOMIC TYPE NUMBER 2:
---------------------

    NUCLEAR CHARGE:                       16
    NUMBER OF SYMMETRY INDEPENDENT ATOMS: 1
    HIGHEST ORBITAL TYPE:                 F

    1 GROUPS OF CGTOS OF S TYPE
    1 GROUPS OF CGTOS OF P TYPE
    1 GROUPS OF CGTOS OF D TYPE
    1 GROUPS OF CGTOS OF F TYPE

    NUCLEAR COORDINATES (IN A.U.) ARE:

    S #2   0.000000000000000   0.000000000000000  -2.933988781090000

INTERNUCLEAR DISTANCES (A):

    FOR ATOM C #1 (COORDINATES:   0.00000   0.00000   0.00000)

    S #2 1 DISTANCE IS   1.55260

    FOR ATOM S #2 (COORDINATES:   0.00000   0.00000  -2.93399)

    S #2 5 DISTANCE IS   3.10520

GROUP MULTIPLICATION TABLE:

    1 2 3 4 5 6 7 8
    2 1 4 3 6 5 8 7
    3 4 1 2 7 8 5 6
    4 3 2 1 8 7 6 5
    5 6 7 8 1 2 3 4
    6 5 8 7 2 1 4 3
    7 8 5 6 3 4 1 2
    8 7 6 5 4 3 2 1

GAUSSIAN BASIS INFORMATION:

ATOM                EXPONENT       COEFFICIENTS

C #1  1  S   
                  1   13575.349682   0.5435906   0.0000000   0.0000000   0.0000000   0.0000000
                  2    2035.233368   1.0145544   0.0000000   0.0000000   0.0000000   0.0000000
                  3     463.225624   1.7315732   0.0000000   0.0000000   0.0000000   0.0000000
                  4     131.200196   2.6910376   0.0000000   0.0000000   0.0000000   0.0000000
                  5      42.853016   3.6044547   0.0000000   0.0000000   0.0000000   0.0000000
                  6      15.584186   3.7025557   0.0000000   0.0000000   0.0000000   0.0000000
                  7       6.206714   0.0000000   1.8383541   0.0000000   0.0000000   0.0000000
                  8       2.576490   0.0000000   0.5447576   0.0000000   0.0000000   0.0000000
                  9       0.576963   0.0000000   0.0000000   0.4718145   0.0000000   0.0000000
                 10       0.229728   0.0000000   0.0000000   0.0000000   0.2364945   0.0000000
                 11       0.095164   0.0000000   0.0000000   0.0000000   0.0000000   0.1221142

C #1  1  X   
                 12      34.697232   1.3596651   0.0000000   0.0000000
                 13       7.958262   1.4512589   0.0000000   0.0000000
                 14       2.378083   1.2709231   0.0000000   0.0000000
                 15       0.814332   0.8025721   0.0000000   0.0000000
                 16       0.288875   0.0000000   0.3018759   0.0000000
                 17       0.100568   0.0000000   0.0000000   0.0807265

C #1  1  Y   
                 18      34.697232   1.3596651   0.0000000   0.0000000
                 19       7.958262   1.4512589   0.0000000   0.0000000
                 20       2.378083   1.2709231   0.0000000   0.0000000
                 21       0.814332   0.8025721   0.0000000   0.0000000
                 22       0.288875   0.0000000   0.3018759   0.0000000
                 23       0.100568   0.0000000   0.0000000   0.0807265

C #1  1  Z   
                 24      34.697232   1.3596651   0.0000000   0.0000000
                 25       7.958262   1.4512589   0.0000000   0.0000000
                 26       2.378083   1.2709231   0.0000000   0.0000000
                 27       0.814332   0.8025721   0.0000000   0.0000000
                 28       0.288875   0.0000000   0.3018759   0.0000000
                 29       0.100568   0.0000000   0.0000000   0.0807265

C #1  1  XX  
                 30       1.097000   3.3522136   0.0000000
                 31       0.318000   0.0000000   0.3838995

C #1  1  XY  
                 32       1.097000   3.3522136   0.0000000
                 33       0.318000   0.0000000   0.3838995

C #1  1  XZ  
                 34       1.097000   3.3522136   0.0000000
                 35       0.318000   0.0000000   0.3838995

C #1  1  YY  
                 36       1.097000   3.3522136   0.0000000
                 37       0.318000   0.0000000   0.3838995

C #1  1  YZ  
                 38       1.097000   3.3522136   0.0000000
                 39       0.318000   0.0000000   0.3838995

C #1  1  ZZ  
                 40       1.097000   3.3522136   0.0000000
                 41       0.318000   0.0000000   0.3838995

C #1  1  F300
                 42       0.761000   3.0840084

C #1  1  F210
                 43       0.761000   3.0840084

C #1  1  F201
                 44       0.761000   3.0840084

C #1  1  F120
                 45       0.761000   3.0840084

C #1  1  F111
                 46       0.761000   3.0840084

C #1  1  F102
                 47       0.761000   3.0840084

C #1  1  F030
                 48       0.761000   3.0840084

C #1  1  F021
                 49       0.761000   3.0840084

C #1  1  F012
                 50       0.761000   3.0840084

C #1  1  F003
                 51       0.761000   3.0840084

S #2  1  S   
                 52   60700.928104   1.4436859   0.0000000   0.0000000   0.0000000   0.0000000
                 53    9102.610685   2.6903416   0.0000000   0.0000000   0.0000000   0.0000000
                 54    2071.416601   4.5576134   0.0000000   0.0000000   0.0000000   0.0000000
                 55     586.024768   6.9181169   0.0000000   0.0000000   0.0000000   0.0000000
                 56     190.553950   8.6810242   0.0000000   0.0000000   0.0000000   0.0000000
                 57      67.630384   7.5175826   0.0000000   0.0000000   0.0000000   0.0000000
                 58      25.127307   2.7909008   0.0000000   0.0000000   0.0000000   0.0000000
                 59     112.574630   0.0000000   2.4743724   0.0000000   0.0000000   0.0000000
                 60      34.795554   0.0000000   4.4305159   0.0000000   0.0000000   0.0000000
                 61       6.511556   0.0000000  -3.5107205   0.0000000   0.0000000   0.0000000
                 62       3.239903   0.0000000   0.0000000   1.1617184   0.0000000   0.0000000
                 63       1.547716   0.0000000   0.0000000   0.3432560   0.0000000   0.0000000
                 64       0.405410   0.0000000   0.0000000   0.0000000   0.3621022   0.0000000
                 65       0.145507   0.0000000   0.0000000   0.0000000   0.0000000   0.1679082

S #2  5  S   
                 66   60700.928104   1.4436859   0.0000000   0.0000000   0.0000000   0.0000000
                 67    9102.610685   2.6903416   0.0000000   0.0000000   0.0000000   0.0000000
                 68    2071.416601   4.5576134   0.0000000   0.0000000   0.0000000   0.0000000
                 69     586.024768   6.9181169   0.0000000   0.0000000   0.0000000   0.0000000
                 70     190.553950   8.6810242   0.0000000   0.0000000   0.0000000   0.0000000
                 71      67.630384   7.5175826   0.0000000   0.0000000   0.0000000   0.0000000
                 72      25.127307   2.7909008   0.0000000   0.0000000   0.0000000   0.0000000
                 73     112.574630   0.0000000   2.4743724   0.0000000   0.0000000   0.0000000
                 74      34.795554   0.0000000   4.4305159   0.0000000   0.0000000   0.0000000
                 75       6.511556   0.0000000  -3.5107205   0.0000000   0.0000000   0.0000000
                 76       3.239903   0.0000000   0.0000000   1.1617184   0.0000000   0.0000000
                 77       1.547716   0.0000000   0.0000000   0.3432560   0.0000000   0.0000000
                 78       0.405410   0.0000000   0.0000000   0.0000000   0.3621022   0.0000000
                 79       0.145507   0.0000000   0.0000000   0.0000000   0.0000000   0.1679082

S #2  1  X   
                 80     564.367160  13.6790183   0.0000000   0.0000000   0.0000000   0.0000000
                 81     133.426244  17.8952669   0.0000000   0.0000000   0.0000000   0.0000000
                 82      42.468271  19.5629319   0.0000000   0.0000000   0.0000000   0.0000000
                 83      15.616528  16.0036949   0.0000000   0.0000000   0.0000000   0.0000000
                 84       6.109399   8.3819669   0.0000000   0.0000000   0.0000000   0.0000000
                 85       2.440416   0.0000000   4.3478036   0.0000000   0.0000000   0.0000000
                 86       0.838822   0.0000000   0.0000000   1.1442670   0.0000000   0.0000000
                 87       0.312887   0.0000000   0.0000000   0.0000000   0.3335610   0.0000000
                 88       0.107701   0.0000000   0.0000000   0.0000000   0.0000000   0.0879458

S #2  5  X   
                 89     564.367160  13.6790183   0.0000000   0.0000000   0.0000000   0.0000000
                 90     133.426244  17.8952669   0.0000000   0.0000000   0.0000000   0.0000000
                 91      42.468271  19.5629319   0.0000000   0.0000000   0.0000000   0.0000000
                 92      15.616528  16.0036949   0.0000000   0.0000000   0.0000000   0.0000000
                 93       6.109399   8.3819669   0.0000000   0.0000000   0.0000000   0.0000000
                 94       2.440416   0.0000000   4.3478036   0.0000000   0.0000000   0.0000000
                 95       0.838822   0.0000000   0.0000000   1.1442670   0.0000000   0.0000000
                 96       0.312887   0.0000000   0.0000000   0.0000000   0.3335610   0.0000000
                 97       0.107701   0.0000000   0.0000000   0.0000000   0.0000000   0.0879458

S #2  1  Y   
                 98     564.367160  13.6790183   0.0000000   0.0000000   0.0000000   0.0000000
                 99     133.426244  17.8952669   0.0000000   0.0000000   0.0000000   0.0000000
                100      42.468271  19.5629319   0.0000000   0.0000000   0.0000000   0.0000000
                101      15.616528  16.0036949   0.0000000   0.0000000   0.0000000   0.0000000
                102       6.109399   8.3819669   0.0000000   0.0000000   0.0000000   0.0000000
                103       2.440416   0.0000000   4.3478036   0.0000000   0.0000000   0.0000000
                104       0.838822   0.0000000   0.0000000   1.1442670   0.0000000   0.0000000
                105       0.312887   0.0000000   0.0000000   0.0000000   0.3335610   0.0000000
                106       0.107701   0.0000000   0.0000000   0.0000000   0.0000000   0.0879458

S #2  5  Y   
                107     564.367160  13.6790183   0.0000000   0.0000000   0.0000000   0.0000000
                108     133.426244  17.8952669   0.0000000   0.0000000   0.0000000   0.0000000
                109      42.468271  19.5629319   0.0000000   0.0000000   0.0000000   0.0000000
                110      15.616528  16.0036949   0.0000000   0.0000000   0.0000000   0.0000000
                111       6.109399   8.3819669   0.0000000   0.0000000   0.0000000   0.0000000
                112       2.440416   0.0000000   4.3478036   0.0000000   0.0000000   0.0000000
                113       0.838822   0.0000000   0.0000000   1.1442670   0.0000000   0.0000000
                114       0.312887   0.0000000   0.0000000   0.0000000   0.3335610   0.0000000
                115       0.107701   0.0000000   0.0000000   0.0000000   0.0000000   0.0879458

S #2  1  Z   
                116     564.367160  13.6790183   0.0000000   0.0000000   0.0000000   0.0000000
                117     133.426244  17.8952669   0.0000000   0.0000000   0.0000000   0.0000000
                118      42.468271  19.5629319   0.0000000   0.0000000   0.0000000   0.0000000
                119      15.616528  16.0036949   0.0000000   0.0000000   0.0000000   0.0000000
                120       6.109399   8.3819669   0.0000000   0.0000000   0.0000000   0.0000000
                121       2.440416   0.0000000   4.3478036   0.0000000   0.0000000   0.0000000
                122       0.838822   0.0000000   0.0000000   1.1442670   0.0000000   0.0000000
                123       0.312887   0.0000000   0.0000000   0.0000000   0.3335610   0.0000000
                124       0.107701   0.0000000   0.0000000   0.0000000   0.0000000   0.0879458

S #2  5  Z   
                125     564.367160  13.6790183   0.0000000   0.0000000   0.0000000   0.0000000
                126     133.426244  17.8952669   0.0000000   0.0000000   0.0000000   0.0000000
                127      42.468271  19.5629319   0.0000000   0.0000000   0.0000000   0.0000000
                128      15.616528  16.0036949   0.0000000   0.0000000   0.0000000   0.0000000
                129       6.109399   8.3819669   0.0000000   0.0000000   0.0000000   0.0000000
                130       2.440416   0.0000000   4.3478036   0.0000000   0.0000000   0.0000000
                131       0.838822   0.0000000   0.0000000   1.1442670   0.0000000   0.0000000
                132       0.312887   0.0000000   0.0000000   0.0000000   0.3335610   0.0000000
                133       0.107701   0.0000000   0.0000000   0.0000000   0.0000000   0.0879458

S #2  1  XX  
                134       0.273000   0.2939373   0.0000000   0.0000000
                135       3.756000   0.0000000  28.8894887   0.0000000
                136       0.812000   0.0000000   0.0000000   1.9801274

S #2  5  XX  
                137       0.273000   0.2939373   0.0000000   0.0000000
                138       3.756000   0.0000000  28.8894887   0.0000000
                139       0.812000   0.0000000   0.0000000   1.9801274

S #2  1  XY  
                140       0.273000   0.2939373   0.0000000   0.0000000
                141       3.756000   0.0000000  28.8894887   0.0000000
                142       0.812000   0.0000000   0.0000000   1.9801274

S #2  5  XY  
                143       0.273000   0.2939373   0.0000000   0.0000000
                144       3.756000   0.0000000  28.8894887   0.0000000
                145       0.812000   0.0000000   0.0000000   1.9801274

S #2  1  XZ  
                146       0.273000   0.2939373   0.0000000   0.0000000
                147       3.756000   0.0000000  28.8894887   0.0000000
                148       0.812000   0.0000000   0.0000000   1.9801274

S #2  5  XZ  
                149       0.273000   0.2939373   0.0000000   0.0000000
                150       3.756000   0.0000000  28.8894887   0.0000000
                151       0.812000   0.0000000   0.0000000   1.9801274

S #2  1  YY  
                152       0.273000   0.2939373   0.0000000   0.0000000
                153       3.756000   0.0000000  28.8894887   0.0000000
                154       0.812000   0.0000000   0.0000000   1.9801274

S #2  5  YY  
                155       0.273000   0.2939373   0.0000000   0.0000000
                156       3.756000   0.0000000  28.8894887   0.0000000
                157       0.812000   0.0000000   0.0000000   1.9801274

S #2  1  YZ  
                158       0.273000   0.2939373   0.0000000   0.0000000
                159       3.756000   0.0000000  28.8894887   0.0000000
                160       0.812000   0.0000000   0.0000000   1.9801274

S #2  5  YZ  
                161       0.273000   0.2939373   0.0000000   0.0000000
                162       3.756000   0.0000000  28.8894887   0.0000000
                163       0.812000   0.0000000   0.0000000   1.9801274

S #2  1  ZZ  
                164       0.273000   0.2939373   0.0000000   0.0000000
                165       3.756000   0.0000000  28.8894887   0.0000000
                166       0.812000   0.0000000   0.0000000   1.9801274

S #2  5  ZZ  
                167       0.273000   0.2939373   0.0000000   0.0000000
                168       3.756000   0.0000000  28.8894887   0.0000000
                169       0.812000   0.0000000   0.0000000   1.9801274

S #2  1  F300
                170       0.557000   1.5281791

S #2  5  F300
                171       0.557000   1.5281791

S #2  1  F210
                172       0.557000   1.5281791

S #2  5  F210
                173       0.557000   1.5281791

S #2  1  F201
                174       0.557000   1.5281791

S #2  5  F201
                175       0.557000   1.5281791

S #2  1  F120
                176       0.557000   1.5281791

S #2  5  F120
                177       0.557000   1.5281791

S #2  1  F111
                178       0.557000   1.5281791

S #2  5  F111
                179       0.557000   1.5281791

S #2  1  F102
                180       0.557000   1.5281791

S #2  5  F102
                181       0.557000   1.5281791

S #2  1  F030
                182       0.557000   1.5281791

S #2  5  F030
                183       0.557000   1.5281791

S #2  1  F021
                184       0.557000   1.5281791

S #2  5  F021
                185       0.557000   1.5281791

S #2  1  F012
                186       0.557000   1.5281791

S #2  5  F012
                187       0.557000   1.5281791

S #2  1  F003
                188       0.557000   1.5281791

S #2  5  F003
                189       0.557000   1.5281791

SYMMETRY TRANSFORMATION INTO 115 SYMMETRY-ADAPTED BASIS FUNCTIONS

    IRREDUCIBLE REPRESENTATION NUMBER 1

    1    1 C #1 S      1   1.0
    2    2 C #1 S      2   1.0
    3    3 C #1 S      3   1.0
    4    4 C #1 S      4   1.0
    5    5 C #1 S      5   1.0
    6    6 C #1 XX    15  -1.0  21  -1.0  25   2.0
    7    7 C #1 XX    16  -1.0  22  -1.0  26   2.0
    8    8 C #1 YY    15   1.0  21  -1.0
    9    9 C #1 YY    16   1.0  22  -1.0
   10   10 C #1 ZZ    37   1.0  38   1.0
   11   11 C #1 ZZ    39   1.0  40   1.0
   12   12 S #2 S     41   1.0  42   1.0
   13   13 S #2 S     43   1.0  44   1.0
   14   14 S #2 S     45   1.0  46   1.0
   15   15 S #2 S     67   1.0  68  -1.0
   16   16 S #2 S     69   1.0  70  -1.0
   17   17 S #2 Z     71   1.0  72  -1.0
   18   18 S #2 Z     73   1.0  74  -1.0
   19   19 S #2 Z     75   1.0  76  -1.0
   20   20 S #2 Z     77  -1.0  78  -1.0  95  -1.0  96  -1.0 107   2.0 108   2.0
   21   21 S #2 Z     79  -1.0  80  -1.0  97  -1.0  98  -1.0 109   2.0 110   2.0
   22   22 S #2 XX    81  -1.0  82  -1.0  99  -1.0 100  -1.0 111   2.0 112   2.0
   23   23 S #2 XX    77   1.0  78   1.0  95  -1.0  96  -1.0
   24   24 S #2 XX    79   1.0  80   1.0  97  -1.0  98  -1.0
   25   25 S #2 YY    81   1.0  82   1.0  99  -1.0 100  -1.0
   26   26 S #2 YY   117  -3.0 118   3.0 127  -3.0 128   3.0 131   2.0 132  -2.0
   27   27 S #2 YY   117   1.0 118  -1.0 127  -1.0 128   1.0
   28   28 S #2 ZZ     6   1.0
   29   29 S #2 ZZ     7   1.0
   30   30 S #2 ZZ     8   1.0
   31   31 S #2 F201  27  -1.0  30  -1.0  32   4.0
   32   32 S #2 F021  27   1.0  30  -3.0
   33   33 S #2 F003  47   1.0  48   1.0

    IRREDUCIBLE REPRESENTATION NUMBER 2

   34    1 C #1 X     49   1.0  50   1.0
   35    2 C #1 X     51   1.0  52   1.0
   36    3 C #1 X     53   1.0  54   1.0
   37    4 C #1 F300  55   1.0  56   1.0
   38    5 C #1 F120  89   1.0  90  -1.0
   39    6 C #1 F102  91   1.0  92  -1.0
   40    7 S #2 X     93   1.0  94  -1.0
   41    8 S #2 X    113  -1.0 114  -1.0 119  -1.0 120  -1.0 123   4.0 124   4.0
   42    9 S #2 X    113   1.0 114   1.0 119  -3.0 120  -3.0
   43   10 S #2 X      9   1.0
   44   11 S #2 X     10   1.0
   45   12 S #2 XZ    11   1.0
   46   13 S #2 XZ    28  -1.0  33  -1.0  35   4.0
   47   14 S #2 XZ    28   3.0  33  -1.0
   48   15 S #2 F300  57   1.0  58   1.0
   49   16 S #2 F120  59   1.0  60   1.0
   50   17 S #2 F102  61   1.0  62   1.0

    IRREDUCIBLE REPRESENTATION NUMBER 3

   51    1 C #1 Y     63   1.0  64   1.0
   52    2 C #1 Y     65   1.0  66   1.0
   53    3 C #1 Y    101   1.0 102  -1.0
   54    4 C #1 F210 103   1.0 104  -1.0
   55    5 C #1 F030 105   1.0 106  -1.0
   56    6 C #1 F012 115  -1.0 116  -1.0 125  -1.0 126  -1.0 129   4.0 130   4.0
   57    7 S #2 Y    115   3.0 116   3.0 125  -1.0 126  -1.0
   58    8 S #2 Y     17   1.0
   59    9 S #2 Y     18   1.0
   60   10 S #2 Y     83   1.0  84   1.0
   61   11 S #2 Y     85   1.0  86   1.0
   62   12 S #2 YZ    87   1.0  88   1.0
   63   13 S #2 YZ   121   1.0 122  -1.0
   64   14 S #2 YZ    12   1.0
   65   15 S #2 F210  13   1.0
   66   16 S #2 F030  14   1.0
   67   17 S #2 F012  29  -3.0  34  -3.0  36   2.0

    IRREDUCIBLE REPRESENTATION NUMBER 4

   68    1 C #1 XY    29   1.0  34  -1.0
   69    2 C #1 XY    37   1.0  38  -1.0
   70    3 S #2 XY    39   1.0  40  -1.0
   71    4 S #2 XY    41   1.0  42  -1.0
   72    5 S #2 XY    43   1.0  44  -1.0
   73    6 S #2 F111  45   1.0  46  -1.0

    IRREDUCIBLE REPRESENTATION NUMBER 5

   74    1 C #1 Z     67   1.0  68   1.0
   75    2 C #1 Z     69   1.0  70   1.0
   76    3 C #1 Z     71   1.0  72   1.0
   77    4 C #1 F201  73   1.0  74   1.0
   78    5 C #1 F021  75   1.0  76   1.0
   79    6 C #1 F003  77  -1.0  78   1.0  95  -1.0  96   1.0 107   2.0 108  -2.0
   80    7 S #2 S     79  -1.0  80   1.0  97  -1.0  98   1.0 109   2.0 110  -2.0
   81    8 S #2 S     81  -1.0  82   1.0  99  -1.0 100   1.0 111   2.0 112  -2.0
   82    9 S #2 S     77   1.0  78  -1.0  95  -1.0  96   1.0
   83   10 S #2 S     79   1.0  80  -1.0  97  -1.0  98   1.0
   84   11 S #2 S     81   1.0  82  -1.0  99  -1.0 100   1.0
   85   12 S #2 Z    117  -3.0 118  -3.0 127  -3.0 128  -3.0 131   2.0 132   2.0
   86   13 S #2 Z    117   1.0 118   1.0 127  -1.0 128  -1.0
   87   14 S #2 Z     19   1.0
   88   15 S #2 Z     20   1.0
   89   16 S #2 Z     47   1.0  48  -1.0
   90   17 S #2 XX    49   1.0  50  -1.0
   91   18 S #2 XX    51   1.0  52  -1.0
   92   19 S #2 XX    53   1.0  54  -1.0
   93   20 S #2 YY    55   1.0  56  -1.0
   94   21 S #2 YY    89   1.0  90   1.0
   95   22 S #2 YY    91   1.0  92   1.0
   96   23 S #2 ZZ    93   1.0  94   1.0
   97   24 S #2 ZZ   113  -1.0 114   1.0 119  -1.0 120   1.0 123   4.0 124  -4.0
   98   25 S #2 ZZ   113   1.0 114  -1.0 119  -3.0 120   3.0
   99   26 S #2 F201  23   1.0
  100   27 S #2 F021  24   1.0
  101   28 S #2 F003  57   1.0  58  -1.0

    IRREDUCIBLE REPRESENTATION NUMBER 6

  102    1 C #1 XZ    59   1.0  60  -1.0
  103    2 C #1 XZ    61   1.0  62  -1.0
  104    3 S #2 X     63   1.0  64  -1.0
  105    4 S #2 X     65   1.0  66  -1.0
  106    5 S #2 X    101   1.0 102   1.0
  107    6 S #2 X    103   1.0 104   1.0
  108    7 S #2 X    105   1.0 106   1.0
  109    8 S #2 XZ   115  -1.0 116   1.0 125  -1.0 126   1.0 129   4.0 130  -4.0
  110    9 S #2 XZ   115   3.0 116  -3.0 125  -1.0 126   1.0
  111   10 S #2 XZ    31   1.0
  112   11 S #2 F300  83   1.0  84  -1.0
  113   12 S #2 F120  85   1.0  86  -1.0
  114   13 S #2 F102  87   1.0  88  -1.0

    IRREDUCIBLE REPRESENTATION NUMBER 7

  115    1 C #1 YZ   121   1.0 122   1.0
  116    2 C #1 YZ  
  117    3 S #2 Y   
  118    4 S #2 Y   
  119    5 S #2 Y   
  120    6 S #2 Y   
  121    7 S #2 Y   
  122    8 S #2 YZ  
  123    9 S #2 YZ  
  124   10 S #2 YZ  
  125   11 S #2 F210
  126   12 S #2 F030
  127   13 S #2 F012

    IRREDUCIBLE REPRESENTATION NUMBER 8

  128    1 C #1 F111
  129    2 S #2 XY  
  130    3 S #2 XY  
  131    4 S #2 XY  
  132    5 S #2 F111

NUCLEAR REPULSION ENERGY:  109.0665383803 A.U.

One-electron integrals took 0.013788 seconds

  @TWOEL-I,      81228 INTEGRALS OF SYMMETRY TYPE  I I I I
  @TWOEL-I,     657382 INTEGRALS OF SYMMETRY TYPE  I J I J
  @TWOEL-I,     371736 INTEGRALS OF SYMMETRY TYPE  I I J J
  @TWOEL-I,    1309625 INTEGRALS OF SYMMETRY TYPE  I J K L
  @TWOEL-I, TOTAL NUMBER OF 2-E INTEGRALS    2419971

Two-electron integrals took 6.207913 seconds

Nuclear repulsion energy: 109.066538380258
--executable xvmol finished with status     0 in        7.50 seconds (walltime).
 --invoking executable--
/project1/nike/cfour_v2.00beta_May2019xnmol_noLABBASIS/bin/xvmol2ja
--executable xvmol2ja finished with status     0 in        0.03 seconds (walltime).
 --invoking executable--
/project1/nike/cfour_v2.00beta_May2019xnmol_noLABBASIS/bin/xvscf
  There are  115 functions in the AO basis.

  There are 8 irreducible representations.

       Irrep        # of functions
         1                 27
         2                 15
         3                 15
         4                  6
         5                 23
         6                 12
         7                 12
         8                  5


  Parameters for SCF calculation: 
        SCF reference function: ROHF  
  Maximum number of iterations: ****
     Full symmetry point group: DXh 
     Computational point group: D2h 
        Initial density matrix: CORE                   
     SCF convergence tolerance: 10**(-11)
  DIIS convergence acceleration:  ON
          Latest start for DIIS:   5
                     DIIS order:   6

  Memory information:     601572 words required.
  Fock matrices are constructed from AO integral file.
 @GETMEM-I,  Allocated       4 MB of main memory.
  Initialization and symmetry analysis required      0.002 seconds.

  @INITGES-I, Occupancies from core Hamiltonian:

          Alpha population by irrep:   5    2    2    0    5    2    2    1
           Beta population by irrep:   5    2    2    0    4    2    2    1


 total no. of electrons in initial guess :  0.000000000000000E+000
 total no. of electrons in initial guess :  0.000000000000000E+000
  --------------------------------------------------------------------
  Iteration         Total Energy            Largest Density Difference
  --------------------------------------------------------------------
       0           109.066538380258379              0.0000000000D+00
   current occupation vector 
     5  2  2  0  5  2  2  1
     5  2  2  0  4  2  2  1
  processed                  81228  ao basis integrals from 
                   136  buffers.
  processed                 371736  ao basis integrals from 
                   620  buffers.
  processed                 657382  ao basis integrals from 
                  1096  buffers.
       1          -727.380916396950852              0.2095046206D+01
   current occupation vector 
     5  2  2  0  5  2  2  1
     5  2  2  0  4  2  2  1
  processed                  81228  ao basis integrals from 
                   136  buffers.
  processed                 371736  ao basis integrals from 
                   620  buffers.
  processed                 657382  ao basis integrals from 
                  1096  buffers.
       2          -792.364958063459994              0.1474744011D+02
   current occupation vector 
     6  3  3  0  5  1  1  0
     6  3  3  0  4  1  1  0
  processed                  81228  ao basis integrals from 
                   136  buffers.
  processed                 371736  ao basis integrals from 
                   620  buffers.
  processed                 657382  ao basis integrals from 
                  1096  buffers.
       3          -818.258799178036611              0.1479047386D+02
   current occupation vector 
     6  2  2  0  5  2  2  0
     5  2  2  0  5  2  2  0
  processed                  81228  ao basis integrals from 
                   136  buffers.
  processed                 371736  ao basis integrals from 
                   620  buffers.
  processed                 657382  ao basis integrals from 
                  1096  buffers.
       4          -821.882270333013253              0.1834638746D+01
   current occupation vector 
     6  2  2  0  5  2  2  0
     6  2  2  0  5  1  2  0
 
 sum over diagonal and offdiagdiagonal of C(T)*S*C for irrep
                     1
  1.424860229803926E-012 -8.295641850656975E-013
 reorthoganalization of MOs is carried out
 sum over diagonal and offdiagdiagonal of C(T)*S*C for irrep
                     1
 -5.573319583618286E-014  1.718494740383662E-013
 
 sum over diagonal and offdiagdiagonal of C(T)*S*C for irrep
                     2
 -1.698641227676490E-014 -1.322339277408759E-014
 reorthoganalization of MOs is carried out
 sum over diagonal and offdiagdiagonal of C(T)*S*C for irrep
                     2
  2.109423746787797E-015  9.537896579482128E-015
 
 sum over diagonal and offdiagdiagonal of C(T)*S*C for irrep
                     3
 -4.318767565791859E-014 -1.361659011271877E-014
 reorthoganalization of MOs is carried out
 sum over diagonal and offdiagdiagonal of C(T)*S*C for irrep
                     3
  6.661338147750939E-016 -1.050096714188532E-015
 
 sum over diagonal and offdiagdiagonal of C(T)*S*C for irrep
                     4
  2.109423746787797E-014  2.331034670843835E-018
 reorthoganalization of MOs is carried out
 sum over diagonal and offdiagdiagonal of C(T)*S*C for irrep
                     4
 -2.220446049250313E-016 -2.211501381327308E-016
 
 sum over diagonal and offdiagdiagonal of C(T)*S*C for irrep
                     5
  5.939693181744587E-014 -8.957873882702440E-013
 reorthoganalization of MOs is carried out
 sum over diagonal and offdiagdiagonal of C(T)*S*C for irrep
                     5
  5.428990590417015E-014  4.344286659335038E-013
 
 sum over diagonal and offdiagdiagonal of C(T)*S*C for irrep
                     6
  4.807265696626928E-014  2.002127187772002E-014
 reorthoganalization of MOs is carried out
 sum over diagonal and offdiagdiagonal of C(T)*S*C for irrep
                     6
  3.219646771412954E-015  9.696064303380153E-016
 
 sum over diagonal and offdiagdiagonal of C(T)*S*C for irrep
                     7
  5.873079800267078E-014  3.737803678012635E-015
 reorthoganalization of MOs is carried out
 sum over diagonal and offdiagdiagonal of C(T)*S*C for irrep
                     7
  6.661338147750939E-016  3.687701146891819E-015
 
 sum over diagonal and offdiagdiagonal of C(T)*S*C for irrep
                     8
 -1.643130076445232E-014  1.240327285323417E-016
 reorthoganalization of MOs is carried out
 sum over diagonal and offdiagdiagonal of C(T)*S*C for irrep
                     8
  2.220446049250313E-016 -2.537033083616080E-016
  processed                  81228  ao basis integrals from 
                   136  buffers.
  processed                 371736  ao basis integrals from 
                   620  buffers.
  processed                 657382  ao basis integrals from 
                  1096  buffers.
       5          -824.374065167828348              0.1152390838D+01
   current occupation vector 
     6  2  2  0  5  2  2  0
     6  2  2  0  4  2  2  0
  processed                  81228  ao basis integrals from 
                   136  buffers.
  processed                 371736  ao basis integrals from 
                   620  buffers.
  processed                 657382  ao basis integrals from 
                  1096  buffers.
       6          -831.000740758998063              0.2944800103D+00
   current occupation vector 
     6  2  2  0  5  2  2  0
     6  2  2  0  5  1  2  0
  processed                  81228  ao basis integrals from 
                   136  buffers.
  processed                 371736  ao basis integrals from 
                   620  buffers.
  processed                 657382  ao basis integrals from 
                  1096  buffers.
       7          -832.546022659812593              0.1316055767D+00
   current occupation vector 
     6  2  2  0  5  2  2  0
     6  2  2  0  5  1  2  0
  processed                  81228  ao basis integrals from 
                   136  buffers.
  processed                 371736  ao basis integrals from 
                   620  buffers.
  processed                 657382  ao basis integrals from 
                  1096  buffers.
       8          -832.608220094045578              0.5687438330D-01
   current occupation vector 
     6  2  2  0  5  2  2  0
     6  2  2  0  5  1  2  0
  processed                  81228  ao basis integrals from 
                   136  buffers.
  processed                 371736  ao basis integrals from 
                   620  buffers.
  processed                 657382  ao basis integrals from 
                  1096  buffers.
       9          -832.609926934210534              0.4943209224D-02
   current occupation vector 
     6  2  2  0  5  2  2  0
     6  2  2  0  5  1  2  0
 
 sum over diagonal and offdiagdiagonal of C(T)*S*C for irrep
                     1
  1.638689184346731E-013 -2.432434164217826E-013
 reorthoganalization of MOs is carried out
 sum over diagonal and offdiagdiagonal of C(T)*S*C for irrep
                     1
 -1.310063169057685E-013  1.199463531491194E-013
 
 sum over diagonal and offdiagdiagonal of C(T)*S*C for irrep
                     2
  4.984901380566953E-014 -1.671944022323734E-014
 reorthoganalization of MOs is carried out
 sum over diagonal and offdiagdiagonal of C(T)*S*C for irrep
                     2
  1.776356839400250E-015 -5.097106155747650E-015
 
 sum over diagonal and offdiagdiagonal of C(T)*S*C for irrep
                     3
 -1.898481372109018E-014  1.636397912533310E-015
 reorthoganalization of MOs is carried out
 sum over diagonal and offdiagdiagonal of C(T)*S*C for irrep
                     3
  3.330669073875470E-016  5.819946492658117E-016
 
 sum over diagonal and offdiagdiagonal of C(T)*S*C for irrep
                     4
 -6.661338147750939E-016 -1.208207795963534E-016
 reorthoganalization of MOs is carried out
 sum over diagonal and offdiagdiagonal of C(T)*S*C for irrep
                     4
 -5.551115123125783E-016  2.871983792278321E-016
 
 sum over diagonal and offdiagdiagonal of C(T)*S*C for irrep
                     5
  1.861844012296388E-013 -1.894833254223500E-013
 reorthoganalization of MOs is carried out
 sum over diagonal and offdiagdiagonal of C(T)*S*C for irrep
                     5
 -5.928590951498336E-014  1.326966213014185E-013
 
 sum over diagonal and offdiagdiagonal of C(T)*S*C for irrep
                     6
  2.742250870824137E-014  6.198563846447374E-015
 reorthoganalization of MOs is carried out
 sum over diagonal and offdiagdiagonal of C(T)*S*C for irrep
                     6
 -2.220446049250313E-016 -2.135426796346306E-016
 
 sum over diagonal and offdiagdiagonal of C(T)*S*C for irrep
                     7
  6.661338147750939E-015  7.253930416752496E-015
 reorthoganalization of MOs is carried out
 sum over diagonal and offdiagdiagonal of C(T)*S*C for irrep
                     7
 -1.332267629550188E-015  1.176554670619418E-015
 
 sum over diagonal and offdiagdiagonal of C(T)*S*C for irrep
                     8
  3.996802888650564E-015 -1.425495252098548E-015
 reorthoganalization of MOs is carried out
 sum over diagonal and offdiagdiagonal of C(T)*S*C for irrep
                     8
  6.661338147750939E-016  2.667279222333006E-016
  processed                  81228  ao basis integrals from 
                   136  buffers.
  processed                 371736  ao basis integrals from 
                   620  buffers.
  processed                 657382  ao basis integrals from 
                  1096  buffers.
      10          -832.610113337751841              0.1290371623D-02
   current occupation vector 
     6  2  2  0  5  2  2  0
     6  2  2  0  5  1  2  0
  processed                  81228  ao basis integrals from 
                   136  buffers.
  processed                 371736  ao basis integrals from 
                   620  buffers.
  processed                 657382  ao basis integrals from 
                  1096  buffers.
      11          -832.610128662698799              0.7342633195D-03
   current occupation vector 
     6  2  2  0  5  2  2  0
     6  2  2  0  5  1  2  0
  processed                  81228  ao basis integrals from 
                   136  buffers.
  processed                 371736  ao basis integrals from 
                   620  buffers.
  processed                 657382  ao basis integrals from 
                  1096  buffers.
      12          -832.610133103099997              0.3325397709D-03
   current occupation vector 
     6  2  2  0  5  2  2  0
     6  2  2  0  5  1  2  0
  processed                  81228  ao basis integrals from 
                   136  buffers.
  processed                 371736  ao basis integrals from 
                   620  buffers.
  processed                 657382  ao basis integrals from 
                  1096  buffers.
      13          -832.610133509745879              0.1415045053D-03
   current occupation vector 
     6  2  2  0  5  2  2  0
     6  2  2  0  5  1  2  0
  processed                  81228  ao basis integrals from 
                   136  buffers.
  processed                 371736  ao basis integrals from 
                   620  buffers.
  processed                 657382  ao basis integrals from 
                  1096  buffers.
      14          -832.610133538784339              0.2834869473D-04
   current occupation vector 
     6  2  2  0  5  2  2  0
     6  2  2  0  5  1  2  0
 
 sum over diagonal and offdiagdiagonal of C(T)*S*C for irrep
                     1
 -1.583178033115473E-013  1.556093663047461E-013
 reorthoganalization of MOs is carried out
 sum over diagonal and offdiagdiagonal of C(T)*S*C for irrep
                     1
  1.272315586220429E-013 -2.825604080237378E-014
 
 sum over diagonal and offdiagdiagonal of C(T)*S*C for irrep
                     2
  6.139533326177116E-014 -1.350560033975423E-014
 reorthoganalization of MOs is carried out
 sum over diagonal and offdiagdiagonal of C(T)*S*C for irrep
                     2
  2.220446049250313E-016 -4.472290049792708E-015
 
 sum over diagonal and offdiagdiagonal of C(T)*S*C for irrep
                     3
 -2.220446049250313E-016 -4.829466957584822E-016
 reorthoganalization of MOs is carried out
 sum over diagonal and offdiagdiagonal of C(T)*S*C for irrep
                     3
 -1.332267629550188E-015 -1.888864916131011E-015
 
 sum over diagonal and offdiagdiagonal of C(T)*S*C for irrep
                     4
 -7.105427357601002E-015 -9.508446276434296E-015
 reorthoganalization of MOs is carried out
 sum over diagonal and offdiagdiagonal of C(T)*S*C for irrep
                     4
  5.551115123125783E-016  3.199074035190042E-016
 
 sum over diagonal and offdiagdiagonal of C(T)*S*C for irrep
                     5
  4.718447854656915E-014  5.942211249635389E-014
 reorthoganalization of MOs is carried out
 sum over diagonal and offdiagdiagonal of C(T)*S*C for irrep
                     5
  8.104628079763643E-015 -6.407608729158984E-014
 
 sum over diagonal and offdiagdiagonal of C(T)*S*C for irrep
                     6
  5.329070518200751E-015 -8.510713061393445E-015
 reorthoganalization of MOs is carried out
 sum over diagonal and offdiagdiagonal of C(T)*S*C for irrep
                     6
  3.330669073875470E-015  2.108278154992561E-015
 
 sum over diagonal and offdiagdiagonal of C(T)*S*C for irrep
                     7
  2.553512956637860E-014 -3.070638766060381E-015
 reorthoganalization of MOs is carried out
 sum over diagonal and offdiagdiagonal of C(T)*S*C for irrep
                     7
 -4.440892098500626E-016  3.458205261992577E-015
 
 sum over diagonal and offdiagdiagonal of C(T)*S*C for irrep
                     8
  4.662936703425657E-015 -1.216449850056792E-015
 reorthoganalization of MOs is carried out
 sum over diagonal and offdiagdiagonal of C(T)*S*C for irrep
                     8
  4.440892098500626E-016  4.782816005901138E-016
  processed                  81228  ao basis integrals from 
                   136  buffers.
  processed                 371736  ao basis integrals from 
                   620  buffers.
  processed                 657382  ao basis integrals from 
                  1096  buffers.
      15          -832.610133541331379              0.6308811720D-05
   current occupation vector 
     6  2  2  0  5  2  2  0
     6  2  2  0  5  1  2  0
  processed                  81228  ao basis integrals from 
                   136  buffers.
  processed                 371736  ao basis integrals from 
                   620  buffers.
  processed                 657382  ao basis integrals from 
                  1096  buffers.
      16          -832.610133541542723              0.2546132205D-05
   current occupation vector 
     6  2  2  0  5  2  2  0
     6  2  2  0  5  1  2  0
  processed                  81228  ao basis integrals from 
                   136  buffers.
  processed                 371736  ao basis integrals from 
                   620  buffers.
  processed                 657382  ao basis integrals from 
                  1096  buffers.
      17          -832.610133541549430              0.6008829573D-06
   current occupation vector 
     6  2  2  0  5  2  2  0
     6  2  2  0  5  1  2  0
  processed                  81228  ao basis integrals from 
                   136  buffers.
  processed                 371736  ao basis integrals from 
                   620  buffers.
  processed                 657382  ao basis integrals from 
                  1096  buffers.
      18          -832.610133541547384              0.6668765229D-07
   current occupation vector 
     6  2  2  0  5  2  2  0
     6  2  2  0  5  1  2  0
  processed                  81228  ao basis integrals from 
                   136  buffers.
  processed                 371736  ao basis integrals from 
                   620  buffers.
  processed                 657382  ao basis integrals from 
                  1096  buffers.
      19          -832.610133541549089              0.1401678748D-07
   current occupation vector 
     6  2  2  0  5  2  2  0
     6  2  2  0  5  1  2  0
 
 sum over diagonal and offdiagdiagonal of C(T)*S*C for irrep
                     1
  1.637578961322106E-013  5.221423379805526E-014
 reorthoganalization of MOs is carried out
 sum over diagonal and offdiagdiagonal of C(T)*S*C for irrep
                     1
 -2.786659791809143E-014 -1.689263283785632E-013
 
 sum over diagonal and offdiagdiagonal of C(T)*S*C for irrep
                     2
 -1.554312234475219E-014 -4.500276453466992E-015
 reorthoganalization of MOs is carried out
 sum over diagonal and offdiagdiagonal of C(T)*S*C for irrep
                     2
  0.000000000000000E+000  2.446550862147050E-015
 
 sum over diagonal and offdiagdiagonal of C(T)*S*C for irrep
                     3
  3.963496197911809E-014  2.891095338867974E-015
 reorthoganalization of MOs is carried out
 sum over diagonal and offdiagdiagonal of C(T)*S*C for irrep
                     3
 -3.108624468950438E-015  6.902704534973123E-016
 
 sum over diagonal and offdiagdiagonal of C(T)*S*C for irrep
                     4
 -4.440892098500626E-016  5.407654846915216E-015
 reorthoganalization of MOs is carried out
 sum over diagonal and offdiagdiagonal of C(T)*S*C for irrep
                     4
 -9.992007221626409E-016 -2.109044276027428E-016
 
 sum over diagonal and offdiagdiagonal of C(T)*S*C for irrep
                     5
  2.442490654175344E-014  1.582093774965729E-013
 reorthoganalization of MOs is carried out
 sum over diagonal and offdiagdiagonal of C(T)*S*C for irrep
                     5
  4.396483177515620E-014 -1.636222919505944E-013
 
 sum over diagonal and offdiagdiagonal of C(T)*S*C for irrep
                     6
  1.632027846198980E-014  7.095257038793584E-015
 reorthoganalization of MOs is carried out
 sum over diagonal and offdiagdiagonal of C(T)*S*C for irrep
                     6
 -1.776356839400250E-015  9.341861698015583E-016
 
 sum over diagonal and offdiagdiagonal of C(T)*S*C for irrep
[...]
  Current DIIS expansion coefficients : 
 [   1]-0.2185923826 [   2]-0.1689025869 [   3] 1.2756896599 [   4]-0.0123035812
 [   5] 0.1241088908
  Convergence information after    23 iterations: 
  Largest element of residual vector : -0.11581077E-08.
  Largest element of DIIS residual   : -0.10223674E-08.
  W(mnij) AA contribution =  0.0088293236 a.u.
  W(mnij) BB contribution =  0.0070047483 a.u.
  W(mnij) AB contribution =  0.0878028000 a.u.
  W(abef) AA contribution =  0.0121891572 a.u.
  W(abef) BB contribution =  0.0100093915 a.u.
  W(abef) AB contribution =  0.1246399460 a.u.
  W(mbej) AA contribution =  -0.0196989153 a.u.
  W(mbej) BB contribution =  -0.0159307582 a.u.
  W(mbej) AB contribution = -0.2979070948 a.u.
   After  24 iterations, amplitude changes are:
    -------------------------------------------------------------------
                 Spin      RMS          Max.      Max. change for
     Amplitude   Case     Change       Change       i    j    a    b
    -------------------------------------------------------------------
        T1        AA    0.0000000000-0.0000000003    3        30
        T1        BB    0.0000000000 0.0000000006    4        42
        T2        AA    0.0000000000 0.0000000001    8    7   43   30
        T2        BB    0.0000000000-0.0000000001    7    3   79   42
        T2        AB    0.0000000000-0.0000000003    7    3   30   79
    -------------------------------------------------------------------
   The AA contribution to the correlation energy is:   -0.0636534 a.u.
   The BB contribution to the correlation energy is:   -0.0508668 a.u.
   The AB contribution to the correlation energy is:   -0.3773243 a.u.
   The total correlation energy is -0.491844415150 a.u.
   The total correlation energy is -0.491844415150 a.u.
  Current DIIS expansion coefficients : 
 [   1]-0.0906754244 [   2]-0.1809435202 [   3] 0.0923425380 [   4] 1.1221934404
 [   5] 0.0570829662
  Convergence information after    24 iterations: 
  Largest element of residual vector :  0.61780622E-09.
  Largest element of DIIS residual   :  0.35906153E-09.
  Amplitude equations converged in    24iterations.
   The AA contribution to the correlation energy is:   -0.0636534 a.u.
   The BB contribution to the correlation energy is:   -0.0508668 a.u.
   The AB contribution to the correlation energy is:   -0.3773243 a.u.
   The total correlation energy is -0.491844415178 a.u.
   The total correlation energy is -0.491844415178 a.u.
   The CC iterations have converged.

            ----------------------------------------------
                     Projected spin multiplicities: 
            ----------------------------------------------
             <0|S^2|0>                  =    0.7500000000.
             <0|S^2 (T2+T1**2) |0>      =    0.0000000000.
             <0|S^2 T1|0>               =    0.0000000000.
             Projected <0|S^2 exp(T)|0> =    0.7500000000.
             Approximate spin mult.     =    2.0000000000.
            ----------------------------------------------
   Largest T1 amplitudes for spin case AA:
   i       a                 i       a                 i       a    
-----------------------------------------------------------------------------
[  3      30    ]-0.08988 [  4      43    ] 0.04495 [  3      31    ] 0.02658
[  7      81    ]-0.02381 [  3      32    ]-0.01926 [  8      91    ]-0.01678
[  5      64    ] 0.01640 [  5      62    ]-0.01635 [  2      12    ] 0.01604
[  1       9    ]-0.01564 [  2       9    ] 0.01454 [  6      64    ]-0.01262
[  5      65    ]-0.01172 [  4      44    ] 0.01155 [  5      63    ]-0.01051
-----------------------------------------------------------------------------
   Norm of T1AA vector (      124 symmetry allowed elements):  0.1223328516.
-----------------------------------------------------------------------------
   Largest T2 amplitudes for spin case AA:
   i   j   a   b             i   j   a   b             i   j   a   b
-----------------------------------------------------------------------------
[  8   7  43  30]-0.03918 [  4   3  43  30]-0.02663 [  8   7 100  64]-0.02150
[  8   6  43   9] 0.02044 [  7   6  30   9] 0.01979 [  8   7  56  12]-0.01777
[  4   3  56  12]-0.01724 [  7   6  30  11] 0.01678 [  8   6  43  11] 0.01677
[  8   3  64  56] 0.01667 [  8   3 100  12]-0.01654 [  7   2  63  30]-0.01611
[  7   4 100  12] 0.01610 [  7   4  64  56]-0.01598 [  6   3  63  30]-0.01573
-----------------------------------------------------------------------------
   Norm of T2AA vector (    16392 symmetry allowed elements):  0.1551593094.
-----------------------------------------------------------------------------
   Largest T1 amplitudes for spin case BB:
   i       a                 i       a                 i       a    
-----------------------------------------------------------------------------
[  4      42    ] 0.07540 [  3      29    ] 0.06695 [  3      31    ] 0.02427
[  4      44    ] 0.01968 [  3      32    ] 0.01709 [  4      45    ] 0.01343
[  7      91    ]-0.01318 [  6      62    ]-0.01134 [  2      12    ] 0.01133
[  3      33    ] 0.01073 [  4      46    ] 0.01004 [  4      43    ] 0.00952
[  5      63    ]-0.00834 [  6      64    ]-0.00731 [  3      30    ] 0.00730
-----------------------------------------------------------------------------
   Norm of T1BB vector (      114 symmetry allowed elements):  0.1145491807.
-----------------------------------------------------------------------------
   Largest T2 amplitudes for spin case BB:
   i   j   a   b             i   j   a   b             i   j   a   b
-----------------------------------------------------------------------------
[  7   3  79  42]-0.05532 [  4   3  42  29]-0.03213 [  7   6  42  10] 0.01875
[  7   6  42   8] 0.01783 [  6   4  62  42]-0.01766 [  7   2  62  42]-0.01657
[  6   3  79  10] 0.01611 [  4   2  42   9]-0.01603 [  4   3  55  11]-0.01559
[  7   6  42   9] 0.01546 [  7   3  79  44]-0.01517 [  6   3  62  29]-0.01505
[  3   2  29   9]-0.01484 [  7   4  90  42]-0.01443 [  6   3  79   8] 0.01317
-----------------------------------------------------------------------------
   Norm of T2BB vector (    12696 symmetry allowed elements):  0.1446634466.
-----------------------------------------------------------------------------
   Largest T2 amplitudes for spin case AB:
       _       _                 _       _                 _       _
   i   j   a   b             i   j   a   b             i   j   a   b
-----------------------------------------------------------------------------
[  7   3  30  79] 0.09948 [  3   3  30  29]-0.07651 [  8   7  43  42]-0.07580
[  8   3  43  79] 0.06505 [  4   4  43  42]-0.05967 [  7   7  30  42]-0.05197
[  4   3  43  29]-0.04666 [  3   4  30  42]-0.03894 [  2   2  30  29]-0.03374
[  2   2  43  42]-0.03024 [  3   3  30  31]-0.02995 [  7   3  32  79] 0.02910
[  6   6  30  29]-0.02426 [  4   7  43  91]-0.02387 [  6   2  30  79]-0.02337
-----------------------------------------------------------------------------
   Norm of T2AB vector (    68292 symmetry allowed elements):  0.4379012867.
-----------------------------------------------------------------------------
       Summary of iterative solution of CC equations 
      -----------------------------------------------------------
                       Correlation           Total
       Iteration         Energy              Energy
      -----------------------------------------------------------
            0        -0.474625040758    -833.084758582305  DIIS 
            1        -0.467986257916    -833.078119799464  DIIS 
            2        -0.490644162443    -833.100777703991  DIIS 
            3        -0.488672280567    -833.098805822114  DIIS 
            4        -0.491309855654    -833.101443397201  DIIS 
            5        -0.491794225423    -833.101927766971  DIIS 
            6        -0.491840997843    -833.101974539390  DIIS 
            7        -0.491839351490    -833.101972893037  DIIS 
            8        -0.491835389580    -833.101968931127  DIIS 
            9        -0.491843538247    -833.101977079794  DIIS 
           10        -0.491843128341    -833.101976669888  DIIS 
           11        -0.491844125214    -833.101977666761  DIIS 
           12        -0.491844126738    -833.101977668285  DIIS 
           13        -0.491844263248    -833.101977804796  DIIS 
           14        -0.491844337281    -833.101977878829  DIIS 
           15        -0.491844380519    -833.101977922066  DIIS 
           16        -0.491844411750    -833.101977953297  DIIS 
           17        -0.491844409760    -833.101977951307  DIIS 
           18        -0.491844415978    -833.101977957526  DIIS 
           19        -0.491844414394    -833.101977955941  DIIS 
           20        -0.491844414702    -833.101977956249  DIIS 
           21        -0.491844414860    -833.101977956407  DIIS 
           22        -0.491844415006    -833.101977956553  DIIS 
           23        -0.491844415166    -833.101977956713  DIIS 
           24        -0.491844415178    -833.101977956725  DIIS 
      -----------------------------------------------------------
      A miracle has come to pass. The CC iterations have converged.
 @DIMT3-I, Dimensions of T3 amplitudes : 
               # abc          # ijk       Symmetry    Spin 
                    18368              6     1          1
                    17832              7     2          1
                    17832              7     3          1
                    17253              8     4          1
                    18469              6     5          1
                    17933              7     6          1
                    17933              7     7          1
                    17260              8     8          1
                    57668             28     1          2
                    55399             22     2          2
                    55204             26     3          2
                    52898             20     4          2
                    57698             28     5          2
                    55383             26     6          2
                    55234             26     7          2
                    52836             20     8          2
                    58237             26     1          3
                    56067             17     2          3
                    55677             25     3          3
                    53467             16     4          3
                    58279             26     5          3
                    56113             17     6          3
                    55719             25     7          3
                    53417             16     8          3
                    18937              4     1          4
                    18500              2     2          4
                    18305              6     3          4
                    17822              4     4          4
                    19050              4     5          4
                    18567              5     6          4
                    18418              6     7          4
                    17841              4     8          4
 @DIMT3-I, Dimensions of T3 amplitudes : 
               # abc          # ijk       Symmetry    Spin 
                    18368              6     1          1
                    17832              7     2          1
                    17832              7     3          1
                    17253              8     4          1
                    18469              6     5          1
                    17933              7     6          1
                    17933              7     7          1
                    17260              8     8          1
                    57668             28     1          2
                    55399             22     2          2
                    55204             26     3          2
                    52898             20     4          2
                    57698             28     5          2
                    55383             26     6          2
                    55234             26     7          2
                    52836             20     8          2
                    58237             26     1          3
                    56067             17     2          3
                    55677             25     3          3
                    53467             16     4          3
                    58279             26     5          3
                    56113             17     6          3
                    55719             25     7          3
                    53417             16     8          3
                    18937              4     1          4
                    18500              2     2          4
                    18305              6     3          4
                    17822              4     4          4
                    19050              4     5          4
                    18567              5     6          4
                    18418              6     7          4
                    17841              4     8          4
 @TRPS-I, Welcome to TRPS. Watch your RUs ! 
 @TRPS-I, Method is CCSD(T) 
 @TRPS-I, Calculation type is energy 
 @TRPS-I, Reference function information : 
          Reference function is general non-HF 
 @TRPS-I, Reference function is ROHF 
 @TRPS-I, INT1 is true 
 @TRPS-I, INT2 is false 
 @TRPS-I, Lengths of ijka integrals. #1       2800
                                     #2       1941
                                     #3       5180
                                     #4       5876
                                    Max       5876
 @INITRP-I, Initializing W intermediate lists. 
 @TSPABCI-I, AbIc/AbcI record transposition. 
 @TSPABCI-I, (O,v) ---> (v,O) transposition. 
 @TSPABCI-I, In-core algorithm is being used. 
 @TSPABCI-I, In-core algorithm is being used. 
 @TSPABCI-I, In-core algorithm is being used. 
 @TSPABCI-I, In-core algorithm is being used. 
 @TSPABCI-I, In-core algorithm is being used. 
 @TSPABCI-I, In-core algorithm is being used. 
 @TSPABCI-I, In-core algorithm is being used. 
 @TSPABCI-I, In-core algorithm is being used. 
 @TRPS-I, Available memory in integer words    499959040
          Number of pre-allocated words for TRPS14        17824
          Number of free words for TRPS14    499941216
 @TRPS14-I, Spin case AAA 
 @TRPS14-I, Number of free integer words  499941216
            Number of free double words   499941216
            Ratio                                 1
 @TRPS14-I, E4TAAA      -0.000970961450
 @TRPS14-I, E5ST A    0.000003800701585
 @TRPS14-I, E4ST A   -0.000004368896960
 @TRPS-I, Available memory in integer words    499959040
          Number of pre-allocated words for TRPS14        17817
          Number of free words for TRPS14    499941223
 @TRPS14-I, Spin case BBB 
 @TRPS14-I, Number of free integer words  499941223
            Number of free double words   499941223
            Ratio                                 1
 @TRPS14-I, E4TBBB      -0.000780345900
 @TRPS14-I, E5ST B    0.000059752042528
 @TRPS14-I, E4ST B    0.000002324707984
 @SETOOOV-I, Some OOOV lists are being transposed. 
 @TRPS-I, Available memory in integer words    499959040
          Number of pre-allocated words for TRPS2        49073
          Number of free words for TRPS2    499909967
 @TRPS2-I, Spin case AAB 
 @TRPS2-I, Number of free integer words  499909967
           Number of free double  words  499909967
           Ratio                                 1
 @TRPS2-I, E4TBAA      -0.016701555476
 @TRPS2-I, E5ST A    0.000052272609509
 @TRPS2-I, E5ST B    0.000329061104914
 @TRPS2-I, E4ST A   -0.000070063746553
 @TRPS2-I, E4ST B   -0.000019901756811
 @SETOOOV-I, Some OOOV lists are being transposed. 
 @TSPABCI2-I, (Alpha,Beta) ---> (Beta,Alpha). 
 @TSPABCI2-I, In-core algorithm is being used. 
 @TSPABCI2-I, In-core algorithm is being used. 
 @TSPABCI2-I, In-core algorithm is being used. 
 @TSPABCI2-I, In-core algorithm is being used. 
 @TSPABCI2-I, In-core algorithm is being used. 
 @TSPABCI2-I, In-core algorithm is being used. 
 @TSPABCI2-I, In-core algorithm is being used. 
 @TSPABCI2-I, In-core algorithm is being used. 
 @TSPABCI2-I, In-core algorithm is being used. 
 @TSPABCI2-I, In-core algorithm is being used. 
 @TSPABCI2-I, In-core algorithm is being used. 
 @TSPABCI2-I, In-core algorithm is being used. 
 @TSPABCI2-I, In-core algorithm is being used. 
 @TSPABCI2-I, In-core algorithm is being used. 
 @TSPABCI2-I, In-core algorithm is being used. 
 @TSPABCI2-I, In-core algorithm is being used. 
 @AT2IAB-I, Some AbIj lists are being altered. 
 @TRPS-I, Available memory in integer words    499959040
          Number of pre-allocated words for TRPS3       119789
          Number of free words for TRPS3    499839251
 @TRPS3-I, Spin case BBA 
 @TRPS3-I, Number of free integer words  499839251
           Number of free double  words  499839251
           Ratio                                 1
 @TRPS3-I, E4TBBA      -0.015178362614
 @TRPS3-I, E5ST A    0.000150376780081
 @TRPS3-I, E5ST B    0.000879029397506
 @TRPS3-I, E4ST A   -0.000092882952936
 @TRPS3-I, E4ST B   -0.000000933387971
 @TSPABCI2-I, (Beta,Alpha) ---> (Alpha,Beta). 
 @TSPABCI2-I, In-core algorithm is being used. 
 @TSPABCI2-I, In-core algorithm is being used. 
 @TSPABCI2-I, In-core algorithm is being used. 
 @TSPABCI2-I, In-core algorithm is being used. 
 @TSPABCI2-I, In-core algorithm is being used. 
 @TSPABCI2-I, In-core algorithm is being used. 
 @TSPABCI2-I, In-core algorithm is being used. 
 @TSPABCI2-I, In-core algorithm is being used. 
 @TSPABCI2-I, In-core algorithm is being used. 
 @TSPABCI2-I, In-core algorithm is being used. 
 @TSPABCI2-I, In-core algorithm is being used. 
 @TSPABCI2-I, In-core algorithm is being used. 
 @TSPABCI2-I, In-core algorithm is being used. 
 @TSPABCI2-I, In-core algorithm is being used. 
 @TSPABCI2-I, In-core algorithm is being used. 
 @TSPABCI2-I, In-core algorithm is being used. 
 @AT2IAB-I, Some AbIj lists are being altered. 
 @TSPABCI-I, AbIc/AbcI record transposition. 
 @TSPABCI-I, (v,O) ---> (O,v) transposition. 
 @TSPABCI-I, In-core algorithm is being used. 
 @TSPABCI-I, In-core algorithm is being used. 
 @TSPABCI-I, In-core algorithm is being used. 
 @TSPABCI-I, In-core algorithm is being used. 
 @TSPABCI-I, In-core algorithm is being used. 
 @TSPABCI-I, In-core algorithm is being used. 
 @TSPABCI-I, In-core algorithm is being used. 
 @TSPABCI-I, In-core algorithm is being used. 
 @CCENRG-I, CCSD/QCISD energy will now be evaluated. 
 @CCENRG-I, Correlation energies. ECCAA       -0.063653377044
                                  ECCBB       -0.050866753407
                                  ECCAB       -0.377324284728
                                  Total       -0.491844415178
 @CCENRG-I, Reference   energy    -832.610133541547
            CCSD/QCISD energy     -833.101977956725
          E4T (T(CCSD)) = -0.033631225440
          E5ST          =  0.001029406178
          E4ST          = -0.000093816341
          In other words  
          <T3[2](Dagger) D3  T3[2]> = -0.033631225440
          <T1   (Dagger) Q1 WT3[2]> =  0.001029406178
          <T2   (Dagger) Q2 FT3[2]> = -0.000093816341
        E(CCSD)           =    -833.101977956725
        E(CCSD(T))        =    -833.134673592328
  @CHECKOUT-I, Total execution time (CPU/WALL):       11.34/      11.65 seconds.
--executable xvcc finished with status     0 in       12.08 seconds (walltime).
  The final electronic energy is      -833.134673592328227 a.u. 
  This computation required                           42.58 seconds (walltime).
--- SharcNET Job Epilogue ---
Job completed successfully.
               jobid: 1968081
               resid: 3436218
         exit status: 0
      allocated time: 43.6097
           user time: 18.06
         system time: 2.47
peak rss=388898816; peak vsz=388898816 (bytes)
atime=43.6097; utime=18.06; stime=2.47; exit=0
