 **********************************************************************
                          MRCC program system
 **********************************************************************
 
                              Written by
    Mihaly Kallay, Zoltan Rolik, Jozsef Csontos, Istvan Ladjanszki,
       Lorant Szegedy, Bence Ladoczki, Gyula Samu, Klara Petrov,
        Mate Farkas, Peter Nagy, David Mester, and Bence Hegely
 
        Department of Physical Chemistry and Materials Science
            Budapest University of Technology and Economics
                  Budapest P.O.Box 91, H-1521 Hungary
 
                              www.mrcc.hu

 ************************ 2018-04-17 19:10:18 *************************
 Executing minp...

 Reading input from MINP...
 
 Input file:
 
# N+ 4Z
basis=aCVQZ-EMSL
iface=cfour
uncontract=off
calc=CC(5)(6)
mem=32GB
core=corr
itol=18
scftol=13
cctol=7
ccmaxit=999
scfmaxit=9999
scfiguess=ao
scftype=ROHF
rohftype=semicanonical
rest=2
charge=+1
refdet=serialno
1,2
3,4

symm=4
mult=3
#occ=3,0,0,0,0,1,0,0/1,0,0,0,0,1,0,0
geom
N

#Li 1 R

#R=3.065

#unit=angstroms

tprint=0.01
verbosity=3
#nstate=4

 
 
 Checking keyword combinations...
 
 Keywords:
 
 active=none
 agrid=ld0006-ld0590
 basis=acvqz-emsl
 basopt=off
 bpcompo=0.985
 bpcompv=0.98
 bpdfo=0.985
 bpocc=0.985
 bppdo=0.985
 bppdv=0.98
 bpedo=0.985
 bpedv=0.98
 calc=cc(5)(6)
 ccmaxit=999
 ccprog=mrcc
 cctol=7
 charge=+1
 cialg=disk
 ciguess=off
 cmpgrp=auto
 core=corr
 corembed=off
 dboc=off
 dendec=cholesky
 dens=0
 dfalg=invsqrt
 dfbasis_cor=none
 dfbasis_scf=none
 dfintran=ovirt
 dft=off
 diag=david
 domrad=10.d0
 drpaalg=fit
 ecp=auto
 edisp=off
 embed=off
 epert=none
 eps=0.975
 excrad=0.d0
 excrad_fin=0.000000000D+00
 freq=off
 gauss=spher
 geom=zmat
 gopt=off
 ghost=none
 gtol=7
 grtol=10
 hamilton=dc
 iface=cfour
 intalg=auto
 itol=18
 lcorthr=loose
 lccrest=off
 lmp2dens=on
 lnoepso=3e-5
 lnoepsv=1e-6
 localcc=off
 locintrf=disk
 maxact=off
 maxex=0
 bfbasis=none
 mem=32gb
 molden=on
 mulmet=0
 mult=3
 nacto=0
 nactv=0
 naf_cor=off
 naf_scf=off
 nafalg=albe
 naftyp=
 nchol=auto
 ndeps=1e-3
 nstate=1
 nsing=0
 ntrip=0
 occ=
 optalg=
 optmaxit=50
 optetol=1e-6
 optgtol=1e-4
 optstol=1e-3
 orblocc=off
 orbloco=off
 orblocv=off
 osveps=1e-3
 ovirt=off
 ovosnorb=80.0
 ptfreq=0.0
 popul=off
 pressure=100000
 qmmm=off
 refdet=serialno
 rest=2
 rgrid=log3
 rohftype=semicanonical
 scspe=1.d0
 scsps=1.2d0
 scspt=0.33333333333333
 scfalg=auto
 scfdamp=off
 scfdiis=on
 scfdiis_end=9999
 scfdiis_start=1
 scfdiis_step=1
 scfdtol=17
 scfext=10
 scfiguess=ao
 scflshift=off
 scfmaxit=9999
 scftype=rohf
 scftol=13
 spairtol=1e-4
 symm=4
 talg=occ
 temp=298.15
 test=off
 tprint=0.01
 uncontract=off
 unit=angs
 verbosity=3
 wpairtol=0.100000000E-05

 ************************ 2018-04-17 19:10:35 *************************
 Executing goldstone...

 Generation of CC equations in terms of H and T...
 Generation of antisymmetrized Goldstone diagrams...
 Number of diagrams in T^1 equations:    15
 Number of diagrams in T^2 equations:    38
 Number of diagrams in T^3 equations:    54
 Number of diagrams in T^4 equations:    81
 Number of diagrams in T^5 equations:   102
 Number of diagrams in T^6 equations:    14
 Translation of diagrams to factorized equations...
 Optimizing intermediate calculation...
 Number of floating-point operations per iteration step:   4.0937E+14
 Probable CPU time per iteration step (hours):   4093.74
 Required memory (Mbytes):  221387.6
 Number of intermediates:                                 164
 Number of intermediates to be stored:                     68
 Length of intermediate file (Mbytes):  173469.9

 ************************ 2018-04-17 19:10:51 *************************
 Executing xmrcc...

 **********************************************************************
 CC(5)(6) calculation 
 
 
 Allocation of****** Mbytes of memory...
 Number of spinorbitals:                   218
 Number of alpha electrons:                        4
 Number of beta electrons:                         2
 Spin multiplicity:                     2
 z-component of spin:  1.0
 Spatial symmetry:                      4
 Convergence criterion:  1.0E-07
 Construction of occupation graphs...
 Number of                     0 -fold excitations:                      1
 Number of                     1 -fold excitations:                    130
 Number of                     2 -fold excitations:                  17759
 Number of                     3 -fold excitations:                1286240
 Number of                     4 -fold excitations:               43922101
 Number of                     5 -fold excitations:              659268250
 Total number of configurations:              704494481
 Calculation of coupling coefficients...
 Length of intermediate file (Mbytes):   89459.3
 
 ======================================================================
 
 Spin case  1   Alpha:  4   Beta:  2
 Number of excitations:             3388288129
 Number of                     6 -fold excitations:             3388288129
 
 Memory requirements /Mbyte/: 
               Minimal        Optimal
 Real*8:    1214224.3956   1214224.3956
 Integer:      1826.6825
 Total:     1216051.0781   1216051.0781
 

 ************************ 2018-04-17 19:14:09 *************************
 Executing goldstone...

 Generation of CC equations in terms of H and T...
 Generation of antisymmetrized Goldstone diagrams...
 Number of diagrams in T^1 equations:    15
 Number of diagrams in T^2 equations:    38
 Number of diagrams in T^3 equations:    54
 Number of diagrams in T^4 equations:    81
 Number of diagrams in T^5 equations:   102
 Number of diagrams in T^6 equations:    14
 Translation of diagrams to factorized equations...
 Optimizing intermediate calculation...
 Number of floating-point operations per iteration step:   4.0937E+14
 Probable CPU time per iteration step (hours):   4093.74
 Required memory (Mbytes):  221387.6
 Number of intermediates:                                 164
 Number of intermediates to be stored:                     68
 Length of intermediate file (Mbytes):  173469.9

 ************************ 2018-04-17 19:14:25 *************************
 Executing xmrcc...

 **********************************************************************
 CC(5)(6) calculation 
 
 
 Allocation of****** Mbytes of memory...
 Number of spinorbitals:                   218
 Number of alpha electrons:                        4
 Number of beta electrons:                         2
 Spin multiplicity:                     2
 z-component of spin:  1.0
 Spatial symmetry:                      4
 Convergence criterion:  1.0E-07
 Construction of occupation graphs...
 Number of                     0 -fold excitations:                      1
 Number of                     1 -fold excitations:                    130
 Number of                     2 -fold excitations:                  17759
 Number of                     3 -fold excitations:                1286240
 Number of                     4 -fold excitations:               43922101
 Number of                     5 -fold excitations:              659268250
 Total number of configurations:              704494481
 Calculation of coupling coefficients...
 Length of intermediate file (Mbytes):   89459.3
 
 ======================================================================
 
 Spin case  1   Alpha:  4   Beta:  2
 Number of excitations:             3388288129
 Number of                     6 -fold excitations:             3388288129
 
 Memory requirements /Mbyte/: 
               Minimal        Optimal
 Real*8:    1214224.3956   1214224.3956
 Integer:      1826.6825
 Total:     1216051.0781   1216051.0781
 

 ************************ 2018-04-17 19:18:10 *************************
 Executing goldstone...

 Generation of MRCC equations in terms of H and T...
 Generation of antisymmetrized Goldstone diagrams...
 Number of diagrams in T^1 equations:    15
 Number of diagrams in T^2 equations:    38
 Number of diagrams in T^3 equations:    54
 Number of diagrams in T^4 equations:    81
 Number of diagrams in T^5 equations:   102
 Number of diagrams in T^6 equations:    14
 Translation of diagrams to factorized equations...
 Number of restricted diagrams in T^1 equations:     78
 Number of restricted diagrams in T^2 equations:    344
 Number of restricted diagrams in T^3 equations:    892
 Number of restricted diagrams in T^4 equations:   2035
 Number of restricted diagrams in T^5 equations:   3948
 Number of restricted diagrams in T^6 equations:    730
 Optimizing intermediate calculation...
 Number of floating-point operations per iteration step:   3.9989E+14
 Probable CPU time per iteration step (hours):   3998.95
 Required memory (Mbytes):   49059.2
 Number of intermediates:                                1737
 Number of intermediates to be stored:                    693
 Length of intermediate file (Mbytes):  738205.9

 ************************ 2018-04-17 19:20:18 *************************
 Executing xmrcc...

 **********************************************************************
 MRCC(                     6 ) calculation 
 
 
 Allocation of****** Mbytes of memory...
 Number of spinorbitals:                   218
 Number of alpha electrons:                        4
 Number of beta electrons:                         2
 Number of active particles:                   106
 Number of active holes:                         0
 Spin multiplicity:                     2
 z-component of spin:  1.0
 Spatial symmetry:                      4
 Convergence criterion:  1.0E-07
 Construction of occupation graphs...
 Number of                     0 -fold excitations:                      1
 Number of                     1 -fold excitations:                    130
 Number of                     2 -fold excitations:                  17759
 Number of                     3 -fold excitations:                1286240
 Number of                     4 -fold excitations:               43922101
 Number of                     5 -fold excitations:              659268250
 Total number of configurations:              704494481
 Calculation of coupling coefficients...
 Length of intermediate file (Mbytes):  383855.0
 
 ======================================================================
 
 Spin case  1   Alpha:  4   Beta:  2
 Number of excitations:               50443855
 Spin case  2   Alpha:  4   Beta:  2
 Number of excitations:              209824004
 Spin case  3   Alpha:  4   Beta:  2
 Number of excitations:              104773045
 Spin case  4   Alpha:  4   Beta:  2
 Number of excitations:              314699828
 Spin case  5   Alpha:  4   Beta:  2
 Number of excitations:              435784388
 Spin case  6   Alpha:  4   Beta:  2
 Number of excitations:               52384885
 Spin case  7   Alpha:  4   Beta:  2
 Number of excitations:              201736340
 Spin case  8   Alpha:  4   Beta:  2
 Number of excitations:              653561428
 Spin case  9   Alpha:  4   Beta:  2
 Number of excitations:              217893572
 Spin case 10   Alpha:  4   Beta:  2
 Number of excitations:               46636777
 Spin case 11   Alpha:  4   Beta:  2
 Number of excitations:              418968672
 Spin case 12   Alpha:  4   Beta:  2
 Number of excitations:              326795938
 Spin case 13   Alpha:  4   Beta:  2
 Number of excitations:               96862695
 Spin case 14   Alpha:  4   Beta:  2
 Number of excitations:              209491629
 Spin case 15   Alpha:  4   Beta:  2
 Number of excitations:               48431073
 Number of                     6 -fold excitations:             3388288129
 
 Memory requirements /Mbyte/: 
               Minimal        Optimal
 Real*8:     176815.3194    176815.3194
 Integer:      1875.3312
 Total:      178690.6507    178690.6507
 

 ************************ 2018-04-17 19:26:54 *************************
 Executing goldstone...

 Generation of MRCC equations in terms of H and T...
 Generation of antisymmetrized Goldstone diagrams...
 Number of diagrams in T^1 equations:    15
 Number of diagrams in T^2 equations:    38
 Number of diagrams in T^3 equations:    54
 Number of diagrams in T^4 equations:    81
 Number of diagrams in T^5 equations:   102
 Number of diagrams in T^6 equations:    14
 Translation of diagrams to factorized equations...
 Number of restricted diagrams in T^1 equations:     78
 Number of restricted diagrams in T^2 equations:    344
 Number of restricted diagrams in T^3 equations:    892
 Number of restricted diagrams in T^4 equations:   2035
 Number of restricted diagrams in T^5 equations:   3948
 Number of restricted diagrams in T^6 equations:    730
 Optimizing intermediate calculation...
 Number of floating-point operations per iteration step:   3.9987E+14
 Probable CPU time per iteration step (hours):   3998.73
 Required memory (Mbytes):   49607.8
 Number of intermediates:                                1713
 Number of intermediates to be stored:                    680
 Length of intermediate file (Mbytes):  735950.0

 ************************ 2018-04-17 19:27:25 *************************
 Executing xmrcc...

 **********************************************************************
 MRCC(                     6 ) calculation 
 
 
 Allocation of****** Mbytes of memory...
 Number of spinorbitals:                   218
 Number of alpha electrons:                        4
 Number of beta electrons:                         2
 Number of active particles:                   104
 Number of active holes:                         0
 Spin multiplicity:                     2
 z-component of spin:  1.0
 Spatial symmetry:                      4
 Convergence criterion:  1.0E-07
 Construction of occupation graphs...
 Number of                     0 -fold excitations:                      1
 Number of                     1 -fold excitations:                    130
 Number of                     2 -fold excitations:                  17759
 Number of                     3 -fold excitations:                1286240
 Number of                     4 -fold excitations:               43922101
 Number of                     5 -fold excitations:              659268250
 Total number of configurations:              704494481
 Calculation of coupling coefficients...
 Length of intermediate file (Mbytes):  382693.7
 
 ======================================================================
 
 Spin case  1   Alpha:  4   Beta:  2
 Number of excitations:               44878154
 Spin case  2   Alpha:  4   Beta:  2
 Number of excitations:              194137592
 Spin case  3   Alpha:  4   Beta:  2
 Number of excitations:               96796935
 Spin case  4   Alpha:  4   Beta:  2
 Number of excitations:              302819342
 Spin case  5   Alpha:  4   Beta:  2
 Number of excitations:              418711985
 Spin case  6   Alpha:  4   Beta:  2
 Number of excitations:               50257055
 Spin case  7   Alpha:  4   Beta:  2
 Number of excitations:              201890754
 Spin case  8   Alpha:  4   Beta:  2
 Number of excitations:              653110202
 Spin case  9   Alpha:  4   Beta:  2
 Number of excitations:              217409270
 Spin case 10   Alpha:  4   Beta:  2
 Number of excitations:               48540256
 Spin case 11   Alpha:  4   Beta:  2
 Number of excitations:              435441686
 Spin case 12   Alpha:  4   Beta:  2
 Number of excitations:              339135149
 Spin case 13   Alpha:  4   Beta:  2
 Number of excitations:              104695436
 Spin case 14   Alpha:  4   Beta:  2
 Number of excitations:              226105227
 Spin case 15   Alpha:  4   Beta:  2
 Number of excitations:               54359086
 Number of                     6 -fold excitations:             3388288129
 
 Memory requirements /Mbyte/: 
               Minimal        Optimal
 Real*8:     176902.4306    176902.4306
 Integer:      1875.2523
 Total:      178777.6829    178777.6829
 

 ************************ 2018-04-17 19:33:44 *************************
 Executing goldstone...

 Generation of MRCC equations in terms of H and T...
 Generation of antisymmetrized Goldstone diagrams...
 Number of diagrams in T^1 equations:    15
 Number of diagrams in T^2 equations:    38
 Number of diagrams in T^3 equations:    54
 Number of diagrams in T^4 equations:    81
 Number of diagrams in T^5 equations:   102
 Number of diagrams in T^6 equations:    14
 Translation of diagrams to factorized equations...
 Number of restricted diagrams in T^1 equations:     78
 Number of restricted diagrams in T^2 equations:    344
 Number of restricted diagrams in T^3 equations:    892
 Number of restricted diagrams in T^4 equations:   2035
 Number of restricted diagrams in T^5 equations:   3948
 Number of restricted diagrams in T^6 equations:    730
 Optimizing intermediate calculation...
 Number of floating-point operations per iteration step:   3.9987E+14
 Probable CPU time per iteration step (hours):   3998.73
 Required memory (Mbytes):   49607.8
 Number of intermediates:                                1714
 Number of intermediates to be stored:                    681
 Length of intermediate file (Mbytes):  739492.8

 ************************ 2018-04-17 19:34:19 *************************
 Executing xmrcc...

 **********************************************************************
 MRCC(                     6 ) calculation 
 
 
 Allocation of****** Mbytes of memory...
 Number of spinorbitals:                   218
 Number of alpha electrons:                        4
 Number of beta electrons:                         2
 Number of active particles:                   108
 Number of active holes:                         0
 Spin multiplicity:                     2
 z-component of spin:  1.0
 Spatial symmetry:                      4
 Convergence criterion:  1.0E-07
 Construction of occupation graphs...
 Number of                     0 -fold excitations:                      1
 Number of                     1 -fold excitations:                    130
 Number of                     2 -fold excitations:                  17759
 Number of                     3 -fold excitations:                1286240
 Number of                     4 -fold excitations:               43922101
 Number of                     5 -fold excitations:              659268250
 Total number of configurations:              704494481
 Calculation of coupling coefficients...
 Length of intermediate file (Mbytes):  384477.1
 
 ======================================================================
 
 Spin case  1   Alpha:  4   Beta:  2
 Number of excitations:               56572562
 Spin case  2   Alpha:  4   Beta:  2
 Number of excitations:              226258591
 Spin case  3   Alpha:  4   Beta:  2
 Number of excitations:              113151677
 Spin case  4   Alpha:  4   Beta:  2
 Number of excitations:              326325461
 Spin case  5   Alpha:  4   Beta:  2
 Number of excitations:              452496304
 Spin case  6   Alpha:  4   Beta:  2
 Number of excitations:               54480938
 Spin case  7   Alpha:  4   Beta:  2
 Number of excitations:              201150597
 Spin case  8   Alpha:  4   Beta:  2
 Number of excitations:              652594526
 Spin case  9   Alpha:  4   Beta:  2
 Number of excitations:              217874696
 Spin case 10   Alpha:  4   Beta:  2
 Number of excitations:               44704758
 Spin case 11   Alpha:  4   Beta:  2
 Number of excitations:              402293703
 Spin case 12   Alpha:  4   Beta:  2
 Number of excitations:              314219271
 Spin case 13   Alpha:  4   Beta:  2
 Number of excitations:               89415084
 Spin case 14   Alpha:  4   Beta:  2
 Number of excitations:              193697693
 Spin case 15   Alpha:  4   Beta:  2
 Number of excitations:               43052268
 Number of                     6 -fold excitations:             3388288129
 
 Memory requirements /Mbyte/: 
               Minimal        Optimal
 Real*8:     176811.5553    176811.5553
 Integer:      1875.2556
 Total:      178686.8109    178686.8109
 

 ************************ 2018-04-17 19:40:09 *************************
 Executing goldstone...

 Generation of MRCC equations in terms of H and T...
 Generation of antisymmetrized Goldstone diagrams...
 Number of diagrams in T^1 equations:    15
 Number of diagrams in T^2 equations:    38
 Number of diagrams in T^3 equations:    54
 Number of diagrams in T^4 equations:    81
 Number of diagrams in T^5 equations:   102
 Number of diagrams in T^6 equations:    14
 Translation of diagrams to factorized equations...
 Number of restricted diagrams in T^1 equations:     78
 Number of restricted diagrams in T^2 equations:    344
 Number of restricted diagrams in T^3 equations:    892
 Number of restricted diagrams in T^4 equations:   2035
 Number of restricted diagrams in T^5 equations:   3948
 Number of restricted diagrams in T^6 equations:    730
 Optimizing intermediate calculation...
 Number of floating-point operations per iteration step:   3.9989E+14
 Probable CPU time per iteration step (hours):   3998.92
 Required memory (Mbytes):   50070.3
 Number of intermediates:                                1714
 Number of intermediates to be stored:                    681
 Length of intermediate file (Mbytes):  740880.8

 ************************ 2018-04-17 19:40:41 *************************
 Executing xmrcc...

 **********************************************************************
 MRCC(                     6 ) calculation 
 
 
 Allocation of****** Mbytes of memory...
 Number of spinorbitals:                   218
 Number of alpha electrons:                        4
 Number of beta electrons:                         2
 Number of active particles:                   110
 Number of active holes:                         0
 Spin multiplicity:                     2
 z-component of spin:  1.0
 Spatial symmetry:                      4
 Convergence criterion:  1.0E-07
 Construction of occupation graphs...
 Number of                     0 -fold excitations:                      1
 Number of                     1 -fold excitations:                    130
 Number of                     2 -fold excitations:                  17759
 Number of                     3 -fold excitations:                1286240
 Number of                     4 -fold excitations:               43922101
 Number of                     5 -fold excitations:              659268250
 Total number of configurations:              704494481
 Calculation of coupling coefficients...
 Length of intermediate file (Mbytes):  385165.7
 
 ======================================================================
 
 Spin case  1   Alpha:  4   Beta:  2
 Number of excitations:               63313279
 Spin case  2   Alpha:  4   Beta:  2
 Number of excitations:              243462210
 Spin case  3   Alpha:  4   Beta:  2
 Number of excitations:              121935577
 Spin case  4   Alpha:  4   Beta:  2
 Number of excitations:              337624112
 Spin case  5   Alpha:  4   Beta:  2
 Number of excitations:              468870011
 Spin case  6   Alpha:  4   Beta:  2
 Number of excitations:               56531800
 Spin case  7   Alpha:  4   Beta:  2
 Number of excitations:              200105598
 Spin case  8   Alpha:  4   Beta:  2
 Number of excitations:              650217419
 Spin case  9   Alpha:  4   Beta:  2
 Number of excitations:              217396953
 Spin case 10   Alpha:  4   Beta:  2
 Number of excitations:               42756144
 Spin case 11   Alpha:  4   Beta:  2
 Number of excitations:              385388060
 Spin case 12   Alpha:  4   Beta:  2
 Number of excitations:              301485794
 Spin case 13   Alpha:  4   Beta:  2
 Number of excitations:               82345548
 Spin case 14   Alpha:  4   Beta:  2
 Number of excitations:              178679712
 Spin case 15   Alpha:  4   Beta:  2
 Number of excitations:               38175912
 Number of                     6 -fold excitations:             3388288129
 
 Memory requirements /Mbyte/: 
               Minimal        Optimal
 Real*8:     176890.3498    176890.3498
 Integer:      1875.2556
 Total:      178765.6055    178765.6055
 

 ************************ 2018-04-17 19:46:35 *************************
 Executing goldstone...

 Generation of MRCC equations in terms of H and T...
 Generation of antisymmetrized Goldstone diagrams...
 Number of diagrams in T^1 equations:    15
 Number of diagrams in T^2 equations:    38
 Number of diagrams in T^3 equations:    54
 Number of diagrams in T^4 equations:    81
 Number of diagrams in T^5 equations:   102
 Number of diagrams in T^6 equations:    14
 Translation of diagrams to factorized equations...
 Number of restricted diagrams in T^1 equations:    440
 Number of restricted diagrams in T^2 equations:   3313
 Number of restricted diagrams in T^3 equations:  12252
 Number of restricted diagrams in T^4 equations:  34205
 Number of restricted diagrams in T^5 equations:  66792
 Number of restricted diagrams in T^6 equations:   8293
 Optimizing intermediate calculation...
 Number of floating-point operations per iteration step:   3.6858E+14
 Probable CPU time per iteration step (hours):   3685.75
 Required memory (Mbytes):  108451.6
 Number of intermediates:                               12837
 Number of intermediates to be stored:                   5782
 Length of intermediate file (Mbytes):  743345.0

 ************************ 2018-04-17 19:50:52 *************************
 Executing xmrcc...

 **********************************************************************
 MRCC(                     6 ) calculation 
 
 
 Allocation of****** Mbytes of memory...
 Number of spinorbitals:                   218
 Number of alpha electrons:                        4
 Number of beta electrons:                         2
 Number of active particles:                   108
 Number of active holes:                         4
 Spin multiplicity:                     2
 z-component of spin:  1.0
 Spatial symmetry:                      4
 Convergence criterion:  1.0E-07
 Construction of occupation graphs...
 Number of                     0 -fold excitations:                      1
 Number of                     1 -fold excitations:                    130
 Number of                     2 -fold excitations:                  17759
 Number of                     3 -fold excitations:                1286240
 Number of                     4 -fold excitations:               43922101
 Number of                     5 -fold excitations:              659268250
 Total number of configurations:              704494481
 Calculation of coupling coefficients...
 Length of intermediate file (Mbytes):  389983.9
 
 ======================================================================
 
 Spin case  1   Alpha:  4   Beta:  2
 Number of excitations:               56572562
 Spin case  2   Alpha:  4   Beta:  2
 Number of excitations:              226258591
 Spin case  3   Alpha:  4   Beta:  2
 Number of excitations:              113151677
 Spin case  4   Alpha:  4   Beta:  2
 Number of excitations:              326325461
 Spin case  5   Alpha:  4   Beta:  2
 Number of excitations:              452496304
 Spin case  6   Alpha:  4   Beta:  2
 Number of excitations:               54480938
 Spin case  7   Alpha:  4   Beta:  2
 Number of excitations:              201150597
 Spin case  8   Alpha:  4   Beta:  2
 Number of excitations:              652594526
 Spin case  9   Alpha:  4   Beta:  2
 Number of excitations:              217874696
 Spin case 10   Alpha:  4   Beta:  2
 Number of excitations:               44704758
 Spin case 11   Alpha:  4   Beta:  2
 Number of excitations:              402293703
 Spin case 12   Alpha:  4   Beta:  2
 Number of excitations:              314219271
 Spin case 13   Alpha:  4   Beta:  2
 Number of excitations:               89415084
 Spin case 14   Alpha:  4   Beta:  2
 Number of excitations:              193697693
 Spin case 15   Alpha:  4   Beta:  2
 Number of excitations:               43052268
 Number of                     6 -fold excitations:             3388288129
 
 Memory requirements /Mbyte/: 
               Minimal        Optimal
 Real*8:     175300.0720    175300.0720
 Integer:      1965.6715
 Total:      177265.7436    177265.7436
 

 ************************ 2018-04-17 20:36:19 *************************
 Executing goldstone...

 Generation of MRCC equations in terms of H and T...
 Generation of antisymmetrized Goldstone diagrams...
 Number of diagrams in T^1 equations:    15
 Number of diagrams in T^2 equations:    38
 Number of diagrams in T^3 equations:    54
 Number of diagrams in T^4 equations:    81
 Number of diagrams in T^5 equations:   102
 Number of diagrams in T^6 equations:    14
 Translation of diagrams to factorized equations...
 Number of restricted diagrams in T^1 equations:    434
 Number of restricted diagrams in T^2 equations:   3184
 Number of restricted diagrams in T^3 equations:  11630
 Number of restricted diagrams in T^4 equations:  32379
 Number of restricted diagrams in T^5 equations:  62678
 Number of restricted diagrams in T^6 equations:   7967
 Optimizing intermediate calculation...
 Number of floating-point operations per iteration step:   3.6658E+14
 Probable CPU time per iteration step (hours):   3665.76
 Required memory (Mbytes):   37541.0
 Number of intermediates:                               12046
 Number of intermediates to be stored:                   5661
 Length of intermediate file (Mbytes):  747974.3

 ************************ 2018-04-17 20:48:29 *************************
 Executing xmrcc...

 **********************************************************************
 MRCC(                     6 ) calculation 
 
 
 Allocation of****** Mbytes of memory...
 Number of spinorbitals:                   218
 Number of alpha electrons:                        4
 Number of beta electrons:                         2
 Number of active particles:                   108
 Number of active holes:                         2
 Spin multiplicity:                     2
 z-component of spin:  1.0
 Spatial symmetry:                      4
 Convergence criterion:  1.0E-07
 Construction of occupation graphs...
 Number of                     0 -fold excitations:                      1
 Number of                     1 -fold excitations:                    130
 Number of                     2 -fold excitations:                  17759
 Number of                     3 -fold excitations:                1286240
 Number of                     4 -fold excitations:               43922101
 Number of                     5 -fold excitations:              659268250
 Total number of configurations:              704494481
 Calculation of coupling coefficients...
 Length of intermediate file (Mbytes):  389979.1
 
 ======================================================================
 
 Spin case  1   Alpha:  4   Beta:  2
 Number of excitations:               56572562
 Spin case  2   Alpha:  4   Beta:  2
 Number of excitations:              226258591
 Spin case  3   Alpha:  4   Beta:  2
 Number of excitations:              113151677
 Spin case  4   Alpha:  4   Beta:  2
 Number of excitations:              326325461
 Spin case  5   Alpha:  4   Beta:  2
 Number of excitations:              452496304
 Spin case  6   Alpha:  4   Beta:  2
 Number of excitations:               54480938
 Spin case  7   Alpha:  4   Beta:  2
 Number of excitations:              201150597
 Spin case  8   Alpha:  4   Beta:  2
 Number of excitations:              652594526
 Spin case  9   Alpha:  4   Beta:  2
 Number of excitations:              217874696
 Spin case 10   Alpha:  4   Beta:  2
 Number of excitations:               44704758
 Spin case 11   Alpha:  4   Beta:  2
 Number of excitations:              402293703
 Spin case 12   Alpha:  4   Beta:  2
 Number of excitations:              314219271
 Spin case 13   Alpha:  4   Beta:  2
 Number of excitations:               89415084
 Spin case 14   Alpha:  4   Beta:  2
 Number of excitations:              193697693
 Spin case 15   Alpha:  4   Beta:  2
 Number of excitations:               43052268
 Number of                     6 -fold excitations:             3388288129
 
 Memory requirements /Mbyte/: 
               Minimal        Optimal
 Real*8:     173484.9835    173484.9835
 Integer:      1959.8818
 Total:      175444.8653    175444.8653
 
 Unable to optimize memory usage: Insufficient memory!
 
 ************************ 2018-04-17 21:43:09 *************************
                   Error at the termination of mrcc.
 **********************************************************************
--- SharcNET Job Epilogue ---
Job returned with status 1.
               jobid: 1544864
               resid: 3024104
         exit status: 1
      allocated time: 9171.46
           user time: 7168.79
         system time: 301.42
peak rss=3771150336; peak vsz=3771150336 (bytes)
atime=9171.46; utime=7168.79; stime=301.42; exit=1


 **********************************************************************
                          MRCC program system
 **********************************************************************
 
                              Written by
    Mihaly Kallay, Zoltan Rolik, Jozsef Csontos, Istvan Ladjanszki,
       Lorant Szegedy, Bence Ladoczki, Gyula Samu, Klara Petrov,
        Mate Farkas, Peter Nagy, David Mester, and Bence Hegely
 
        Department of Physical Chemistry and Materials Science
            Budapest University of Technology and Economics
                  Budapest P.O.Box 91, H-1521 Hungary
 
                              www.mrcc.hu

 ************************ 2018-06-12 21:38:01 *************************
 Executing minp...

 Reading input from MINP...
 
 Input file:
 
# N+ 4Z
basis=aCVQZ-EMSL
iface=cfour
uncontract=off
calc=CC(5)(6)
mem=128GB
core=corr
itol=18
scftol=13
cctol=7
ccmaxit=999
scfmaxit=9999
scfiguess=ao
scftype=ROHF
rohftype=semicanonical
rest=2
charge=+1
refdet=serialno
1,2
3,4

symm=4
mult=3
#occ=3,0,0,0,0,1,0,0/1,0,0,0,0,1,0,0
geom
N

#Li 1 R

#R=3.065

#unit=angstroms

tprint=0.01
verbosity=3
#nstate=4

 
 
 Checking keyword combinations...
 
 Keywords:
 
 active=none
 agrid=ld0006-ld0590
 basis=acvqz-emsl
 basopt=off
 bpcompo=0.985
 bpcompv=0.98
 bpdfo=0.985
 bpocc=0.985
 bppdo=0.985
 bppdv=0.98
 bpedo=0.985
 bpedv=0.98
 calc=cc(5)(6)
 ccmaxit=999
 ccprog=mrcc
 cctol=7
 charge=+1
 cialg=disk
 ciguess=off
 cmpgrp=auto
 core=corr
 corembed=off
 dboc=off
 dendec=cholesky
 dens=0
 dfalg=invsqrt
 dfbasis_cor=none
 dfbasis_scf=none
 dfintran=ovirt
 dft=off
 diag=david
 domrad=10.d0
 drpaalg=fit
 ecp=auto
 edisp=off
 embed=off
 epert=none
 eps=0.975
 excrad=0.d0
 excrad_fin=0.000000000D+00
 freq=off
 gauss=spher
 geom=zmat
 gopt=off
 ghost=none
 gtol=7
 grtol=10
 hamilton=dc
 iface=cfour
 intalg=auto
 itol=18
 lcorthr=loose
 lccrest=off
 lmp2dens=on
 lnoepso=3e-5
 lnoepsv=1e-6
 localcc=off
 locintrf=disk
 maxact=off
 maxex=0
 bfbasis=none
 mem=128gb
 molden=on
 mulmet=0
 mult=3
 nacto=0
 nactv=0
 naf_cor=off
 naf_scf=off
 nafalg=albe
 naftyp=
 nchol=auto
 ndeps=1e-3
 nstate=1
 nsing=0
 ntrip=0
 occ=
 optalg=
 optmaxit=50
 optetol=1e-6
 optgtol=1e-4
 optstol=1e-3
 orblocc=off
 orbloco=off
 orblocv=off
 osveps=1e-3
 ovirt=off
 ovosnorb=80.0
 ptfreq=0.0
 popul=off
 pressure=100000
 qmmm=off
 refdet=serialno
 rest=2
 rgrid=log3
 rohftype=semicanonical
 scspe=1.d0
 scsps=1.2d0
 scspt=0.33333333333333
 scfalg=auto
 scfdamp=off
 scfdiis=on
 scfdiis_end=9999
 scfdiis_start=1
 scfdiis_step=1
 scfdtol=17
 scfext=10
 scfiguess=ao
 scflshift=off
 scfmaxit=9999
 scftype=rohf
 scftol=13
 spairtol=1e-4
 symm=4
 talg=occ
 temp=298.15
 test=off
 tprint=0.01
 uncontract=off
 unit=angs
 verbosity=3
 wpairtol=0.100000000E-05

 ************************ 2018-06-12 21:38:13 *************************
 Executing goldstone...

 Generation of CC equations in terms of H and T...
 Generation of antisymmetrized Goldstone diagrams...
 Number of diagrams in T^1 equations:    15
 Number of diagrams in T^2 equations:    38
 Number of diagrams in T^3 equations:    54
 Number of diagrams in T^4 equations:    81
 Number of diagrams in T^5 equations:   102
 Number of diagrams in T^6 equations:    14
 Translation of diagrams to factorized equations...
 Optimizing intermediate calculation...
 Number of floating-point operations per iteration step:   4.0937E+14
 Probable CPU time per iteration step (hours):   4093.74
 Required memory (Mbytes):  221387.6
 Number of intermediates:                                 164
 Number of intermediates to be stored:                     68
 Length of intermediate file (Mbytes):  173469.9

 ************************ 2018-06-12 21:38:15 *************************
 Executing xmrcc...

 **********************************************************************
 CC(5)(6) calculation 
 
 
 Allocation of****** Mbytes of memory...
 Number of spinorbitals:                   218
 Number of alpha electrons:                        4
 Number of beta electrons:                         2
 Spin multiplicity:                     2
 z-component of spin:  1.0
 Spatial symmetry:                      4
 Convergence criterion:  1.0E-07
 Construction of occupation graphs...
 Number of                     0 -fold excitations:                      1
 Number of                     1 -fold excitations:                    130
 Number of                     2 -fold excitations:                  17759
 Number of                     3 -fold excitations:                1286240
 Number of                     4 -fold excitations:               43922101
 Number of                     5 -fold excitations:              659268250
 Total number of configurations:              704494481
 Calculation of coupling coefficients...
 Length of intermediate file (Mbytes):   89459.3
 
 ======================================================================
 
 Spin case  1   Alpha:  4   Beta:  2
 Number of excitations:             3388288129
 Number of                     6 -fold excitations:             3388288129
 
 Memory requirements /Mbyte/: 
               Minimal        Optimal
 Real*8:     910700.4451    910700.4451
 Integer:      1826.6825
 Total:      912527.1276    912527.1276
 

 ************************ 2018-06-12 21:39:16 *************************
 Executing goldstone...

 Generation of CC equations in terms of H and T...
 Generation of antisymmetrized Goldstone diagrams...
 Number of diagrams in T^1 equations:    15
 Number of diagrams in T^2 equations:    38
 Number of diagrams in T^3 equations:    54
 Number of diagrams in T^4 equations:    81
 Number of diagrams in T^5 equations:   102
 Number of diagrams in T^6 equations:    14
 Translation of diagrams to factorized equations...
 Optimizing intermediate calculation...
 Number of floating-point operations per iteration step:   4.0937E+14
 Probable CPU time per iteration step (hours):   4093.74
 Required memory (Mbytes):  221387.6
 Number of intermediates:                                 164
 Number of intermediates to be stored:                     68
 Length of intermediate file (Mbytes):  173469.9

 ************************ 2018-06-12 21:39:21 *************************
 Executing xmrcc...

 **********************************************************************
 CC(5)(6) calculation 
 
 
 Allocation of****** Mbytes of memory...
 Number of spinorbitals:                   218
 Number of alpha electrons:                        4
 Number of beta electrons:                         2
 Spin multiplicity:                     2
 z-component of spin:  1.0
 Spatial symmetry:                      4
 Convergence criterion:  1.0E-07
 Construction of occupation graphs...
 Number of                     0 -fold excitations:                      1
 Number of                     1 -fold excitations:                    130
 Number of                     2 -fold excitations:                  17759
 Number of                     3 -fold excitations:                1286240
 Number of                     4 -fold excitations:               43922101
 Number of                     5 -fold excitations:              659268250
 Total number of configurations:              704494481
 Calculation of coupling coefficients...
 Length of intermediate file (Mbytes):   89459.3
 
 ======================================================================
 
 Spin case  1   Alpha:  4   Beta:  2
 Number of excitations:             3388288129
 Number of                     6 -fold excitations:             3388288129
 
 Memory requirements /Mbyte/: 
               Minimal        Optimal
 Real*8:     910700.4451    910700.4451
 Integer:      1826.6825
 Total:      912527.1276    912527.1276
 

 ************************ 2018-06-12 21:40:25 *************************
 Executing goldstone...

 Generation of MRCC equations in terms of H and T...
 Generation of antisymmetrized Goldstone diagrams...
 Number of diagrams in T^1 equations:    15
 Number of diagrams in T^2 equations:    38
 Number of diagrams in T^3 equations:    54
 Number of diagrams in T^4 equations:    81
 Number of diagrams in T^5 equations:   102
 Number of diagrams in T^6 equations:    14
 Translation of diagrams to factorized equations...
 Number of restricted diagrams in T^1 equations:     78
 Number of restricted diagrams in T^2 equations:    344
 Number of restricted diagrams in T^3 equations:    892
 Number of restricted diagrams in T^4 equations:   2035
 Number of restricted diagrams in T^5 equations:   3948
 Number of restricted diagrams in T^6 equations:    730
 Optimizing intermediate calculation...
 Number of floating-point operations per iteration step:   3.9989E+14
 Probable CPU time per iteration step (hours):   3998.95
 Required memory (Mbytes):   49059.2
 Number of intermediates:                                1737
 Number of intermediates to be stored:                    693
 Length of intermediate file (Mbytes):  738205.9

 ************************ 2018-06-12 21:40:42 *************************
 Executing xmrcc...

 **********************************************************************
 MRCC(                     6 ) calculation 
 
 
 Allocation of****** Mbytes of memory...
 Number of spinorbitals:                   218
 Number of alpha electrons:                        4
 Number of beta electrons:                         2
 Number of active particles:                   106
 Number of active holes:                         0
 Spin multiplicity:                     2
 z-component of spin:  1.0
 Spatial symmetry:                      4
 Convergence criterion:  1.0E-07
 Construction of occupation graphs...
 Number of                     0 -fold excitations:                      1
 Number of                     1 -fold excitations:                    130
 Number of                     2 -fold excitations:                  17759
 Number of                     3 -fold excitations:                1286240
 Number of                     4 -fold excitations:               43922101
 Number of                     5 -fold excitations:              659268250
 Total number of configurations:              704494481
 Calculation of coupling coefficients...
 Length of intermediate file (Mbytes):  383855.0
 
 ======================================================================
 
 Spin case  1   Alpha:  4   Beta:  2
 Number of excitations:               50443855
 Spin case  2   Alpha:  4   Beta:  2
 Number of excitations:              209824004
 Spin case  3   Alpha:  4   Beta:  2
 Number of excitations:              104773045
 Spin case  4   Alpha:  4   Beta:  2
 Number of excitations:              314699828
 Spin case  5   Alpha:  4   Beta:  2
 Number of excitations:              435784388
 Spin case  6   Alpha:  4   Beta:  2
 Number of excitations:               52384885
 Spin case  7   Alpha:  4   Beta:  2
 Number of excitations:              201736340
 Spin case  8   Alpha:  4   Beta:  2
 Number of excitations:              653561428
 Spin case  9   Alpha:  4   Beta:  2
 Number of excitations:              217893572
 Spin case 10   Alpha:  4   Beta:  2
 Number of excitations:               46636777
 Spin case 11   Alpha:  4   Beta:  2
 Number of excitations:              418968672
 Spin case 12   Alpha:  4   Beta:  2
 Number of excitations:              326795938
 Spin case 13   Alpha:  4   Beta:  2
 Number of excitations:               96862695
 Spin case 14   Alpha:  4   Beta:  2
 Number of excitations:              209491629
 Spin case 15   Alpha:  4   Beta:  2
 Number of excitations:               48431073
 Number of                     6 -fold excitations:             3388288129
 
 Memory requirements /Mbyte/: 
               Minimal        Optimal
 Real*8:     133895.9856    133895.9856
 Integer:      1875.3312
 Total:      135771.3169    135771.3169
 

 ************************ 2018-06-12 21:42:55 *************************
 Executing goldstone...

 Generation of MRCC equations in terms of H and T...
 Generation of antisymmetrized Goldstone diagrams...
 Number of diagrams in T^1 equations:    15
 Number of diagrams in T^2 equations:    38
 Number of diagrams in T^3 equations:    54
 Number of diagrams in T^4 equations:    81
 Number of diagrams in T^5 equations:   102
 Number of diagrams in T^6 equations:    14
 Translation of diagrams to factorized equations...
 Number of restricted diagrams in T^1 equations:     78
 Number of restricted diagrams in T^2 equations:    344
 Number of restricted diagrams in T^3 equations:    892
 Number of restricted diagrams in T^4 equations:   2035
 Number of restricted diagrams in T^5 equations:   3948
 Number of restricted diagrams in T^6 equations:    730
 Optimizing intermediate calculation...
 Number of floating-point operations per iteration step:   3.9987E+14
 Probable CPU time per iteration step (hours):   3998.73
 Required memory (Mbytes):   49607.8
 Number of intermediates:                                1713
 Number of intermediates to be stored:                    680
 Length of intermediate file (Mbytes):  735950.0

 ************************ 2018-06-12 21:43:29 *************************
 Executing xmrcc...

 **********************************************************************
 MRCC(                     6 ) calculation 
 
 
 Allocation of****** Mbytes of memory...
 Number of spinorbitals:                   218
 Number of alpha electrons:                        4
 Number of beta electrons:                         2
 Number of active particles:                   104
 Number of active holes:                         0
 Spin multiplicity:                     2
 z-component of spin:  1.0
 Spatial symmetry:                      4
 Convergence criterion:  1.0E-07
 Construction of occupation graphs...
 Number of                     0 -fold excitations:                      1
 Number of                     1 -fold excitations:                    130
 Number of                     2 -fold excitations:                  17759
 Number of                     3 -fold excitations:                1286240
 Number of                     4 -fold excitations:               43922101
 Number of                     5 -fold excitations:              659268250
 Total number of configurations:              704494481
 Calculation of coupling coefficients...
 Length of intermediate file (Mbytes):  382693.7
 
 ======================================================================
 
 Spin case  1   Alpha:  4   Beta:  2
 Number of excitations:               44878154
 Spin case  2   Alpha:  4   Beta:  2
 Number of excitations:              194137592
 Spin case  3   Alpha:  4   Beta:  2
 Number of excitations:               96796935
 Spin case  4   Alpha:  4   Beta:  2
 Number of excitations:              302819342
 Spin case  5   Alpha:  4   Beta:  2
 Number of excitations:              418711985
 Spin case  6   Alpha:  4   Beta:  2
 Number of excitations:               50257055
 Spin case  7   Alpha:  4   Beta:  2
 Number of excitations:              201890754
 Spin case  8   Alpha:  4   Beta:  2
 Number of excitations:              653110202
 Spin case  9   Alpha:  4   Beta:  2
 Number of excitations:              217409270
 Spin case 10   Alpha:  4   Beta:  2
 Number of excitations:               48540256
 Spin case 11   Alpha:  4   Beta:  2
 Number of excitations:              435441686
 Spin case 12   Alpha:  4   Beta:  2
 Number of excitations:              339135149
 Spin case 13   Alpha:  4   Beta:  2
 Number of excitations:              104695436
 Spin case 14   Alpha:  4   Beta:  2
 Number of excitations:              226105227
 Spin case 15   Alpha:  4   Beta:  2
 Number of excitations:               54359086
 Number of                     6 -fold excitations:             3388288129
 
 Memory requirements /Mbyte/: 
               Minimal        Optimal
 Real*8:     133983.0968    133983.0968
 Integer:      1875.2523
 Total:      135858.3491    135858.3491
 

 ************************ 2018-06-12 21:45:38 *************************
 Executing goldstone...

 Generation of MRCC equations in terms of H and T...
 Generation of antisymmetrized Goldstone diagrams...
 Number of diagrams in T^1 equations:    15
 Number of diagrams in T^2 equations:    38
 Number of diagrams in T^3 equations:    54
 Number of diagrams in T^4 equations:    81
 Number of diagrams in T^5 equations:   102
 Number of diagrams in T^6 equations:    14
 Translation of diagrams to factorized equations...
 Number of restricted diagrams in T^1 equations:     78
 Number of restricted diagrams in T^2 equations:    344
 Number of restricted diagrams in T^3 equations:    892
 Number of restricted diagrams in T^4 equations:   2035
 Number of restricted diagrams in T^5 equations:   3948
 Number of restricted diagrams in T^6 equations:    730
 Optimizing intermediate calculation...
 Number of floating-point operations per iteration step:   3.9987E+14
 Probable CPU time per iteration step (hours):   3998.73
 Required memory (Mbytes):   49607.8
 Number of intermediates:                                1714
 Number of intermediates to be stored:                    681
 Length of intermediate file (Mbytes):  739492.8

 ************************ 2018-06-12 21:45:54 *************************
 Executing xmrcc...

 **********************************************************************
 MRCC(                     6 ) calculation 
 
 
 Allocation of****** Mbytes of memory...
 Number of spinorbitals:                   218
 Number of alpha electrons:                        4
 Number of beta electrons:                         2
 Number of active particles:                   108
 Number of active holes:                         0
 Spin multiplicity:                     2
 z-component of spin:  1.0
 Spatial symmetry:                      4
 Convergence criterion:  1.0E-07
 Construction of occupation graphs...
 Number of                     0 -fold excitations:                      1
 Number of                     1 -fold excitations:                    130
 Number of                     2 -fold excitations:                  17759
 Number of                     3 -fold excitations:                1286240
 Number of                     4 -fold excitations:               43922101
 Number of                     5 -fold excitations:              659268250
 Total number of configurations:              704494481
 Calculation of coupling coefficients...
 Length of intermediate file (Mbytes):  384477.1
 
 ======================================================================
 
 Spin case  1   Alpha:  4   Beta:  2
 Number of excitations:               56572562
 Spin case  2   Alpha:  4   Beta:  2
 Number of excitations:              226258591
 Spin case  3   Alpha:  4   Beta:  2
 Number of excitations:              113151677
 Spin case  4   Alpha:  4   Beta:  2
 Number of excitations:              326325461
 Spin case  5   Alpha:  4   Beta:  2
 Number of excitations:              452496304
 Spin case  6   Alpha:  4   Beta:  2
 Number of excitations:               54480938
 Spin case  7   Alpha:  4   Beta:  2
 Number of excitations:              201150597
 Spin case  8   Alpha:  4   Beta:  2
 Number of excitations:              652594526
 Spin case  9   Alpha:  4   Beta:  2
 Number of excitations:              217874696
 Spin case 10   Alpha:  4   Beta:  2
 Number of excitations:               44704758
 Spin case 11   Alpha:  4   Beta:  2
 Number of excitations:              402293703
 Spin case 12   Alpha:  4   Beta:  2
 Number of excitations:              314219271
 Spin case 13   Alpha:  4   Beta:  2
 Number of excitations:               89415084
 Spin case 14   Alpha:  4   Beta:  2
 Number of excitations:              193697693
 Spin case 15   Alpha:  4   Beta:  2
 Number of excitations:               43052268
 Number of                     6 -fold excitations:             3388288129
 
 Memory requirements /Mbyte/: 
               Minimal        Optimal
 Real*8:     133892.2215    133892.2215
 Integer:      1875.2556
 Total:      135767.4772    135767.4772
 

 ************************ 2018-06-12 21:48:00 *************************
 Executing goldstone...

 Generation of MRCC equations in terms of H and T...
 Generation of antisymmetrized Goldstone diagrams...
 Number of diagrams in T^1 equations:    15
 Number of diagrams in T^2 equations:    38
 Number of diagrams in T^3 equations:    54
 Number of diagrams in T^4 equations:    81
 Number of diagrams in T^5 equations:   102
 Number of diagrams in T^6 equations:    14
 Translation of diagrams to factorized equations...
 Number of restricted diagrams in T^1 equations:     78
 Number of restricted diagrams in T^2 equations:    344
 Number of restricted diagrams in T^3 equations:    892
 Number of restricted diagrams in T^4 equations:   2035
 Number of restricted diagrams in T^5 equations:   3948
 Number of restricted diagrams in T^6 equations:    730
 Optimizing intermediate calculation...
 Number of floating-point operations per iteration step:   3.9989E+14
 Probable CPU time per iteration step (hours):   3998.92
 Required memory (Mbytes):   50070.3
 Number of intermediates:                                1714
 Number of intermediates to be stored:                    681
 Length of intermediate file (Mbytes):  740880.8

 ************************ 2018-06-12 21:48:18 *************************
 Executing xmrcc...

 **********************************************************************
 MRCC(                     6 ) calculation 
 
 
 Allocation of****** Mbytes of memory...
 Number of spinorbitals:                   218
 Number of alpha electrons:                        4
 Number of beta electrons:                         2
 Number of active particles:                   110
 Number of active holes:                         0
 Spin multiplicity:                     2
 z-component of spin:  1.0
 Spatial symmetry:                      4
 Convergence criterion:  1.0E-07
 Construction of occupation graphs...
 Number of                     0 -fold excitations:                      1
 Number of                     1 -fold excitations:                    130
 Number of                     2 -fold excitations:                  17759
 Number of                     3 -fold excitations:                1286240
 Number of                     4 -fold excitations:               43922101
 Number of                     5 -fold excitations:              659268250
 Total number of configurations:              704494481
 Calculation of coupling coefficients...
 Length of intermediate file (Mbytes):  385165.7
 
 ======================================================================
 
 Spin case  1   Alpha:  4   Beta:  2
 Number of excitations:               63313279
 Spin case  2   Alpha:  4   Beta:  2
 Number of excitations:              243462210
 Spin case  3   Alpha:  4   Beta:  2
 Number of excitations:              121935577
 Spin case  4   Alpha:  4   Beta:  2
 Number of excitations:              337624112
 Spin case  5   Alpha:  4   Beta:  2
 Number of excitations:              468870011
 Spin case  6   Alpha:  4   Beta:  2
 Number of excitations:               56531800
 Spin case  7   Alpha:  4   Beta:  2
 Number of excitations:              200105598
 Spin case  8   Alpha:  4   Beta:  2
 Number of excitations:              650217419
 Spin case  9   Alpha:  4   Beta:  2
 Number of excitations:              217396953
 Spin case 10   Alpha:  4   Beta:  2
 Number of excitations:               42756144
 Spin case 11   Alpha:  4   Beta:  2
 Number of excitations:              385388060
 Spin case 12   Alpha:  4   Beta:  2
 Number of excitations:              301485794
 Spin case 13   Alpha:  4   Beta:  2
 Number of excitations:               82345548
 Spin case 14   Alpha:  4   Beta:  2
 Number of excitations:              178679712
 Spin case 15   Alpha:  4   Beta:  2
 Number of excitations:               38175912
 Number of                     6 -fold excitations:             3388288129
 
 Memory requirements /Mbyte/: 
               Minimal        Optimal
 Real*8:     133971.0161    133971.0161
 Integer:      1875.2556
 Total:      135846.2717    135846.2717
 

 ************************ 2018-06-12 21:50:24 *************************
 Executing goldstone...

 Generation of MRCC equations in terms of H and T...
 Generation of antisymmetrized Goldstone diagrams...
 Number of diagrams in T^1 equations:    15
 Number of diagrams in T^2 equations:    38
 Number of diagrams in T^3 equations:    54
 Number of diagrams in T^4 equations:    81
 Number of diagrams in T^5 equations:   102
 Number of diagrams in T^6 equations:    14
 Translation of diagrams to factorized equations...
 Number of restricted diagrams in T^1 equations:    440
 Number of restricted diagrams in T^2 equations:   3313
 Number of restricted diagrams in T^3 equations:  12252
 Number of restricted diagrams in T^4 equations:  34205
 Number of restricted diagrams in T^5 equations:  66792
 Number of restricted diagrams in T^6 equations:   8293
 Optimizing intermediate calculation...
 Number of floating-point operations per iteration step:   3.6858E+14
 Probable CPU time per iteration step (hours):   3685.75
 Required memory (Mbytes):  108451.6
 Number of intermediates:                               12837
 Number of intermediates to be stored:                   5782
 Length of intermediate file (Mbytes):  743345.0

 ************************ 2018-06-12 21:52:27 *************************
 Executing xmrcc...

 **********************************************************************
 MRCC(                     6 ) calculation 
 
 
 Allocation of****** Mbytes of memory...
 Number of spinorbitals:                   218
 Number of alpha electrons:                        4
 Number of beta electrons:                         2
 Number of active particles:                   108
 Number of active holes:                         4
 Spin multiplicity:                     2
 z-component of spin:  1.0
 Spatial symmetry:                      4
 Convergence criterion:  1.0E-07
 Construction of occupation graphs...
 Number of                     0 -fold excitations:                      1
 Number of                     1 -fold excitations:                    130
 Number of                     2 -fold excitations:                  17759
 Number of                     3 -fold excitations:                1286240
 Number of                     4 -fold excitations:               43922101
 Number of                     5 -fold excitations:              659268250
 Total number of configurations:              704494481
 Calculation of coupling coefficients...
 Length of intermediate file (Mbytes):  389983.9
 
 ======================================================================
 
 Spin case  1   Alpha:  4   Beta:  2
 Number of excitations:               56572562
 Spin case  2   Alpha:  4   Beta:  2
 Number of excitations:              226258591
 Spin case  3   Alpha:  4   Beta:  2
 Number of excitations:              113151677
 Spin case  4   Alpha:  4   Beta:  2
 Number of excitations:              326325461
 Spin case  5   Alpha:  4   Beta:  2
 Number of excitations:              452496304
 Spin case  6   Alpha:  4   Beta:  2
 Number of excitations:               54480938
 Spin case  7   Alpha:  4   Beta:  2
 Number of excitations:              201150597
 Spin case  8   Alpha:  4   Beta:  2
 Number of excitations:              652594526
 Spin case  9   Alpha:  4   Beta:  2
 Number of excitations:              217874696
 Spin case 10   Alpha:  4   Beta:  2
 Number of excitations:               44704758
 Spin case 11   Alpha:  4   Beta:  2
 Number of excitations:              402293703
 Spin case 12   Alpha:  4   Beta:  2
 Number of excitations:              314219271
 Spin case 13   Alpha:  4   Beta:  2
 Number of excitations:               89415084
 Spin case 14   Alpha:  4   Beta:  2
 Number of excitations:              193697693
 Spin case 15   Alpha:  4   Beta:  2
 Number of excitations:               43052268
 Number of                     6 -fold excitations:             3388288129
 
 Memory requirements /Mbyte/: 
               Minimal        Optimal
 Real*8:     132380.7383    132380.7383
 Integer:      1965.6715
 Total:      134346.4098    134346.4098
 

 ************************ 2018-06-12 22:10:37 *************************
 Executing goldstone...

 Generation of MRCC equations in terms of H and T...
 Generation of antisymmetrized Goldstone diagrams...
 Number of diagrams in T^1 equations:    15
 Number of diagrams in T^2 equations:    38
 Number of diagrams in T^3 equations:    54
 Number of diagrams in T^4 equations:    81
 Number of diagrams in T^5 equations:   102
 Number of diagrams in T^6 equations:    14
 Translation of diagrams to factorized equations...
 Number of restricted diagrams in T^1 equations:    434
 Number of restricted diagrams in T^2 equations:   3184
 Number of restricted diagrams in T^3 equations:  11630
 Number of restricted diagrams in T^4 equations:  32379
 Number of restricted diagrams in T^5 equations:  62678
 Number of restricted diagrams in T^6 equations:   7967
 Optimizing intermediate calculation...
 Number of floating-point operations per iteration step:   3.6658E+14
 Probable CPU time per iteration step (hours):   3665.76
 Required memory (Mbytes):   37541.0
 Number of intermediates:                               12046
 Number of intermediates to be stored:                   5661
 Length of intermediate file (Mbytes):  747974.3

 ************************ 2018-06-12 22:12:33 *************************
 Executing xmrcc...

 **********************************************************************
 MRCC(                     6 ) calculation 
 
 
 Allocation of****** Mbytes of memory...
 Number of spinorbitals:                   218
 Number of alpha electrons:                        4
 Number of beta electrons:                         2
 Number of active particles:                   108
 Number of active holes:                         2
 Spin multiplicity:                     2
 z-component of spin:  1.0
 Spatial symmetry:                      4
 Convergence criterion:  1.0E-07
 Construction of occupation graphs...
 Number of                     0 -fold excitations:                      1
 Number of                     1 -fold excitations:                    130
 Number of                     2 -fold excitations:                  17759
 Number of                     3 -fold excitations:                1286240
 Number of                     4 -fold excitations:               43922101
 Number of                     5 -fold excitations:              659268250
 Total number of configurations:              704494481
 Calculation of coupling coefficients...
 Length of intermediate file (Mbytes):  389979.1
 
 ======================================================================
 
 Spin case  1   Alpha:  4   Beta:  2
 Number of excitations:               56572562
 Spin case  2   Alpha:  4   Beta:  2
 Number of excitations:              226258591
 Spin case  3   Alpha:  4   Beta:  2
 Number of excitations:              113151677
 Spin case  4   Alpha:  4   Beta:  2
 Number of excitations:              326325461
 Spin case  5   Alpha:  4   Beta:  2
 Number of excitations:              452496304
 Spin case  6   Alpha:  4   Beta:  2
 Number of excitations:               54480938
 Spin case  7   Alpha:  4   Beta:  2
 Number of excitations:              201150597
 Spin case  8   Alpha:  4   Beta:  2
 Number of excitations:              652594526
 Spin case  9   Alpha:  4   Beta:  2
 Number of excitations:              217874696
 Spin case 10   Alpha:  4   Beta:  2
 Number of excitations:               44704758
 Spin case 11   Alpha:  4   Beta:  2
 Number of excitations:              402293703
 Spin case 12   Alpha:  4   Beta:  2
 Number of excitations:              314219271
 Spin case 13   Alpha:  4   Beta:  2
 Number of excitations:               89415084
 Spin case 14   Alpha:  4   Beta:  2
 Number of excitations:              193697693
 Spin case 15   Alpha:  4   Beta:  2
 Number of excitations:               43052268
 Number of                     6 -fold excitations:             3388288129
 
 Memory requirements /Mbyte/: 
               Minimal        Optimal
 Real*8:     130565.6497    130565.6497
 Integer:      1959.8818
 Total:      132525.5316    132525.5316
 
 Unable to optimize memory usage: Insufficient memory!
 
 ************************ 2018-06-12 22:33:42 *************************
                   Error at the termination of mrcc.
 **********************************************************************
--- SharcNET Job Epilogue ---
Job returned with status 1.
               jobid: 1548517
               resid: 3028070
         exit status: 1
      allocated time: 3341.95
           user time: 2920.18
         system time: 100.11
peak rss=3753508864; peak vsz=3753508864 (bytes)
atime=3341.95; utime=2920.18; stime=100.11; exit=1


 **********************************************************************
                          MRCC program system
 **********************************************************************
 
                              Written by
    Mihaly Kallay, Zoltan Rolik, Jozsef Csontos, Istvan Ladjanszki,
       Lorant Szegedy, Bence Ladoczki, Gyula Samu, Klara Petrov,
        Mate Farkas, Peter Nagy, David Mester, and Bence Hegely
 
        Department of Physical Chemistry and Materials Science
            Budapest University of Technology and Economics
                  Budapest P.O.Box 91, H-1521 Hungary
 
                              www.mrcc.hu

 ************************ 2018-06-12 22:38:16 *************************
 Executing minp...

 Reading input from MINP...
 
 Input file:
 
# N+ 4Z
basis=aCVQZ-EMSL
iface=cfour
uncontract=off
calc=CC(5)(6)
mem=180GB
core=corr
itol=18
scftol=13
cctol=7
ccmaxit=999
scfmaxit=9999
scfiguess=ao
scftype=ROHF
rohftype=semicanonical
rest=2
charge=+1
refdet=serialno
1,2
3,4

symm=4
mult=3
#occ=3,0,0,0,0,1,0,0/1,0,0,0,0,1,0,0
geom
N

#Li 1 R

#R=3.065

#unit=angstroms

tprint=0.01
verbosity=3
#nstate=4

 
 
 Checking keyword combinations...
 
 Keywords:
 
 active=none
 agrid=ld0006-ld0590
 basis=acvqz-emsl
 basopt=off
 bpcompo=0.985
 bpcompv=0.98
 bpdfo=0.985
 bpocc=0.985
 bppdo=0.985
 bppdv=0.98
 bpedo=0.985
 bpedv=0.98
 calc=cc(5)(6)
 ccmaxit=999
 ccprog=mrcc
 cctol=7
 charge=+1
 cialg=disk
 ciguess=off
 cmpgrp=auto
 core=corr
 corembed=off
 dboc=off
 dendec=cholesky
 dens=0
 dfalg=invsqrt
 dfbasis_cor=none
 dfbasis_scf=none
 dfintran=ovirt
 dft=off
 diag=david
 domrad=10.d0
 drpaalg=fit
 ecp=auto
 edisp=off
 embed=off
 epert=none
 eps=0.975
 excrad=0.d0
 excrad_fin=0.000000000D+00
 freq=off
 gauss=spher
 geom=zmat
 gopt=off
 ghost=none
 gtol=7
 grtol=10
 hamilton=dc
 iface=cfour
 intalg=auto
 itol=18
 lcorthr=loose
 lccrest=off
 lmp2dens=on
 lnoepso=3e-5
 lnoepsv=1e-6
 localcc=off
 locintrf=disk
 maxact=off
 maxex=0
 bfbasis=none
 mem=180gb
 molden=on
 mulmet=0
 mult=3
 nacto=0
 nactv=0
 naf_cor=off
 naf_scf=off
 nafalg=albe
 naftyp=
 nchol=auto
 ndeps=1e-3
 nstate=1
 nsing=0
 ntrip=0
 occ=
 optalg=
 optmaxit=50
 optetol=1e-6
 optgtol=1e-4
 optstol=1e-3
 orblocc=off
 orbloco=off
 orblocv=off
 osveps=1e-3
 ovirt=off
 ovosnorb=80.0
 ptfreq=0.0
 popul=off
 pressure=100000
 qmmm=off
 refdet=serialno
 rest=2
 rgrid=log3
 rohftype=semicanonical
 scspe=1.d0
 scsps=1.2d0
 scspt=0.33333333333333
 scfalg=auto
 scfdamp=off
 scfdiis=on
 scfdiis_end=9999
 scfdiis_start=1
 scfdiis_step=1
 scfdtol=17
 scfext=10
 scfiguess=ao
 scflshift=off
 scfmaxit=9999
 scftype=rohf
 scftol=13
 spairtol=1e-4
 symm=4
 talg=occ
 temp=298.15
 test=off
 tprint=0.01
 uncontract=off
 unit=angs
 verbosity=3
 wpairtol=0.100000000E-05

 ************************ 2018-06-12 22:38:35 *************************
 Executing goldstone...

 Generation of CC equations in terms of H and T...
 Generation of antisymmetrized Goldstone diagrams...
 Number of diagrams in T^1 equations:    15
 Number of diagrams in T^2 equations:    38
 Number of diagrams in T^3 equations:    54
 Number of diagrams in T^4 equations:    81
 Number of diagrams in T^5 equations:   102
 Number of diagrams in T^6 equations:    14
 Translation of diagrams to factorized equations...
 Optimizing intermediate calculation...
 Number of floating-point operations per iteration step:   4.0937E+14
 Probable CPU time per iteration step (hours):   4093.74
 Required memory (Mbytes):  221387.6
 Number of intermediates:                                 164
 Number of intermediates to be stored:                     68
 Length of intermediate file (Mbytes):  173469.9

 ************************ 2018-06-12 22:38:36 *************************
 Executing xmrcc...

 **********************************************************************
 CC(5)(6) calculation 
 
 
 Allocation of****** Mbytes of memory...
 Number of spinorbitals:                   218
 Number of alpha electrons:                        4
 Number of beta electrons:                         2
 Spin multiplicity:                     2
 z-component of spin:  1.0
 Spatial symmetry:                      4
 Convergence criterion:  1.0E-07
 Construction of occupation graphs...
 Number of                     0 -fold excitations:                      1
 Number of                     1 -fold excitations:                    130
 Number of                     2 -fold excitations:                  17759
 Number of                     3 -fold excitations:                1286240
 Number of                     4 -fold excitations:               43922101
 Number of                     5 -fold excitations:              659268250
 Total number of configurations:              704494481
 Calculation of coupling coefficients...
 Length of intermediate file (Mbytes):   89459.3
 
 ======================================================================
 
 Spin case  1   Alpha:  4   Beta:  2
 Number of excitations:             3388288129
 Number of                     6 -fold excitations:             3388288129
 
 Memory requirements /Mbyte/: 
               Minimal        Optimal
 Real*8:     910700.4451    910700.4451
 Integer:      1826.6825
 Total:      912527.1276    912527.1276
 

 ************************ 2018-06-12 22:39:43 *************************
 Executing goldstone...

 Generation of CC equations in terms of H and T...
 Generation of antisymmetrized Goldstone diagrams...
 Number of diagrams in T^1 equations:    15
 Number of diagrams in T^2 equations:    38
 Number of diagrams in T^3 equations:    54
 Number of diagrams in T^4 equations:    81
 Number of diagrams in T^5 equations:   102
 Number of diagrams in T^6 equations:    14
 Translation of diagrams to factorized equations...
 Optimizing intermediate calculation...
 Number of floating-point operations per iteration step:   4.0937E+14
 Probable CPU time per iteration step (hours):   4093.74
 Required memory (Mbytes):  221387.6
 Number of intermediates:                                 164
 Number of intermediates to be stored:                     68
 Length of intermediate file (Mbytes):  173469.9

 ************************ 2018-06-12 22:39:46 *************************
 Executing xmrcc...

 **********************************************************************
 CC(5)(6) calculation 
 
 
 Allocation of****** Mbytes of memory...
 Number of spinorbitals:                   218
 Number of alpha electrons:                        4
 Number of beta electrons:                         2
 Spin multiplicity:                     2
 z-component of spin:  1.0
 Spatial symmetry:                      4
 Convergence criterion:  1.0E-07
 Construction of occupation graphs...
 Number of                     0 -fold excitations:                      1
 Number of                     1 -fold excitations:                    130
 Number of                     2 -fold excitations:                  17759
 Number of                     3 -fold excitations:                1286240
 Number of                     4 -fold excitations:               43922101
 Number of                     5 -fold excitations:              659268250
 Total number of configurations:              704494481
 Calculation of coupling coefficients...
 Length of intermediate file (Mbytes):   89459.3
 
 ======================================================================
 
 Spin case  1   Alpha:  4   Beta:  2
 Number of excitations:             3388288129
 Number of                     6 -fold excitations:             3388288129
 
 Memory requirements /Mbyte/: 
               Minimal        Optimal
 Real*8:     910700.4451    910700.4451
 Integer:      1826.6825
 Total:      912527.1276    912527.1276
 

 ************************ 2018-06-12 22:40:45 *************************
 Executing goldstone...

 Generation of MRCC equations in terms of H and T...
 Generation of antisymmetrized Goldstone diagrams...
 Number of diagrams in T^1 equations:    15
 Number of diagrams in T^2 equations:    38
 Number of diagrams in T^3 equations:    54
 Number of diagrams in T^4 equations:    81
 Number of diagrams in T^5 equations:   102
 Number of diagrams in T^6 equations:    14
 Translation of diagrams to factorized equations...
 Number of restricted diagrams in T^1 equations:     78
 Number of restricted diagrams in T^2 equations:    344
 Number of restricted diagrams in T^3 equations:    892
 Number of restricted diagrams in T^4 equations:   2035
 Number of restricted diagrams in T^5 equations:   3948
 Number of restricted diagrams in T^6 equations:    730
 Optimizing intermediate calculation...
 Number of floating-point operations per iteration step:   3.9989E+14
 Probable CPU time per iteration step (hours):   3998.95
 Required memory (Mbytes):   49059.2
 Number of intermediates:                                1737
 Number of intermediates to be stored:                    693
 Length of intermediate file (Mbytes):  738205.9

 ************************ 2018-06-12 22:40:57 *************************
 Executing xmrcc...

 **********************************************************************
 MRCC(                     6 ) calculation 
 
 
 Allocation of****** Mbytes of memory...
 Number of spinorbitals:                   218
 Number of alpha electrons:                        4
 Number of beta electrons:                         2
 Number of active particles:                   106
 Number of active holes:                         0
 Spin multiplicity:                     2
 z-component of spin:  1.0
 Spatial symmetry:                      4
 Convergence criterion:  1.0E-07
 Construction of occupation graphs...
 Number of                     0 -fold excitations:                      1
 Number of                     1 -fold excitations:                    130
 Number of                     2 -fold excitations:                  17759
 Number of                     3 -fold excitations:                1286240
 Number of                     4 -fold excitations:               43922101
 Number of                     5 -fold excitations:              659268250
 Total number of configurations:              704494481
 Calculation of coupling coefficients...
 Length of intermediate file (Mbytes):  383855.0
 
 ======================================================================
 
 Spin case  1   Alpha:  4   Beta:  2
 Number of excitations:               50443855
 Spin case  2   Alpha:  4   Beta:  2
 Number of excitations:              209824004
 Spin case  3   Alpha:  4   Beta:  2
 Number of excitations:              104773045
 Spin case  4   Alpha:  4   Beta:  2
 Number of excitations:              314699828
 Spin case  5   Alpha:  4   Beta:  2
 Number of excitations:              435784388
 Spin case  6   Alpha:  4   Beta:  2
 Number of excitations:               52384885
 Spin case  7   Alpha:  4   Beta:  2
 Number of excitations:              201736340
 Spin case  8   Alpha:  4   Beta:  2
 Number of excitations:              653561428
 Spin case  9   Alpha:  4   Beta:  2
 Number of excitations:              217893572
 Spin case 10   Alpha:  4   Beta:  2
 Number of excitations:               46636777
 Spin case 11   Alpha:  4   Beta:  2
 Number of excitations:              418968672
 Spin case 12   Alpha:  4   Beta:  2
 Number of excitations:              326795938
 Spin case 13   Alpha:  4   Beta:  2
 Number of excitations:               96862695
 Spin case 14   Alpha:  4   Beta:  2
 Number of excitations:              209491629
 Spin case 15   Alpha:  4   Beta:  2
 Number of excitations:               48431073
 Number of                     6 -fold excitations:             3388288129
 
 Memory requirements /Mbyte/: 
               Minimal        Optimal
 Real*8:     133895.9856    133895.9856
 Integer:      1875.3312
 Total:      135771.3169    135771.3169
 

 ************************ 2018-06-12 22:43:05 *************************
 Executing goldstone...

 Generation of MRCC equations in terms of H and T...
 Generation of antisymmetrized Goldstone diagrams...
 Number of diagrams in T^1 equations:    15
 Number of diagrams in T^2 equations:    34
 Number of diagrams in T^3 equations:     2
 Translation of diagrams to factorized equations...
 Number of restricted diagrams in T^1 equations:     78
 Number of restricted diagrams in T^2 equations:    299
 Number of restricted diagrams in T^3 equations:     18
 Optimizing intermediate calculation...
 Number of floating-point operations per iteration step:   1.3412E+09
 Probable CPU time per iteration step (hours):      0.01
 Required memory (Mbytes):   16488.5
 Number of intermediates:                                 242
 Number of intermediates to be stored:                    105
 Length of intermediate file (Mbytes):     268.9

 ************************ 2018-06-12 22:43:10 *************************
 Executing xmrcc...

 **********************************************************************
 MRCC(                     3 ) calculation 
 
 
 Allocation of****** Mbytes of memory...
 Number of spinorbitals:                   218
 Number of alpha electrons:                        4
 Number of beta electrons:                         2
 Number of active particles:                   106
 Number of active holes:                         0
 Spin multiplicity:                     2
 z-component of spin:  1.0
 Spatial symmetry:                      4
 Convergence criterion:  1.0E-07
 Construction of occupation graphs...
 Number of                     0 -fold excitations:                      1
 Number of                     1 -fold excitations:                    130
 Number of                     2 -fold excitations:                  17759
 Total number of configurations:                  17890
 Calculation of coupling coefficients...
 Length of intermediate file (Mbytes):     206.4
 
 ======================================================================
 
 Spin case  1   Alpha:  1   Beta:  2
 Number of excitations:                  37258
 Spin case  2   Alpha:  2   Beta:  1
[...]
 
 Spin case  1   Alpha:  4   Beta:  2
 Number of excitations:               50443855
 Spin case  2   Alpha:  4   Beta:  2
 Number of excitations:              209824004
 Spin case  3   Alpha:  4   Beta:  2
 Number of excitations:              104773045
 Spin case  4   Alpha:  4   Beta:  2
 Number of excitations:              314699828
 Spin case  5   Alpha:  4   Beta:  2
 Number of excitations:              435784388
 Spin case  6   Alpha:  4   Beta:  2
 Number of excitations:               52384885
 Spin case  7   Alpha:  4   Beta:  2
 Number of excitations:              201736340
 Spin case  8   Alpha:  4   Beta:  2
 Number of excitations:              653561428
 Spin case  9   Alpha:  4   Beta:  2
 Number of excitations:              217893572
 Spin case 10   Alpha:  4   Beta:  2
 Number of excitations:               46636777
 Spin case 11   Alpha:  4   Beta:  2
 Number of excitations:              418968672
 Spin case 12   Alpha:  4   Beta:  2
 Number of excitations:              326795938
 Spin case 13   Alpha:  4   Beta:  2
 Number of excitations:               96862695
 Spin case 14   Alpha:  4   Beta:  2
 Number of excitations:              209491629
 Spin case 15   Alpha:  4   Beta:  2
 Number of excitations:               48431073
 Number of                     6 -fold excitations:             3388288129
 
 Memory requirements /Mbyte/: 
               Minimal        Optimal
 Real*8:     133895.9856    133895.9856
 Integer:      1875.3312
 Total:      135771.3169    135771.3169
 
 The number of active orbitals has been changed!
 It is dangerous to restart the program!

 ************************ 2018-07-08 02:16:28 *************************
 Executing mrcc...

 **********************************************************************
 CC(5)(6) calculation                                                   
 
 
 OpenMP parallel version is running.
 Number of CPUs:  24
 Allocation of******* Mbytes of memory...
 Number of spinorbitals: 218
 Number of alpha electrons:  4
 Number of beta  electrons:  2
 Number of active particles:                   106
 Number of active holes:                         0
 Spin multiplicity: 2
 z-component of spin:  1.0
 Spatial symmetry: 4
 Convergence criterion:  1.0E-07
 Construction of occupation graphs...
 Number of 0-fold excitations: 1
 Number of 1-fold excitations: 130
 Number of 2-fold excitations: 17759
 Number of 3-fold excitations: 1286240
 Number of 4-fold excitations: 43922101
 Number of 5-fold excitations: 659268250
 Total number of determinants: 704494481
 Calculation of coupling coefficients...
 Initial cluster amplitudes are read from unit 16.
 Length of intermediate file (Mbytes):  383855.0
 Reading integral list from unit 55...
 Sorting integrals...
 Sorting integrals...
 Sorting integrals...
 Sorting integrals...
 Energy of reference determinant [au]:     -53.887409027572
 Calculation of MP denominators...
 
 Starting CC iteration...
 ======================================================================
 Norm of residual vector:     0.00000002
 CPU time [min]: 10959.949                   Wall time [min]:  1209.149
 
 Iteration  1  CC energy:   -54.04871988  Energy decrease:   4.2162E-10
 ======================================================================
 
 Iteration has converged in  1 steps.
 
 Final results:
 Total CCSDTQP energy [au]:          -54.048719881335
 
 Perturbative corrections are calculated...
 ======================================================================
 Spin case  1   Alpha:  4   Beta:  2
 Number of excitations:        50443855
 CPU time [min]: 38222.905                   Wall time [min]:  3249.119
 ======================================================================
 Spin case  2   Alpha:  4   Beta:  2
 Number of excitations:        209824004
 CPU time [min]:232478.738                   Wall time [min]: 12180.535
 ======================================================================
 Spin case  3   Alpha:  4   Beta:  2
 Number of excitations:        104773045
 CPU time [min]:301336.243                   Wall time [min]: 15332.403
 ======================================================================
 Spin case  4   Alpha:  4   Beta:  2
 Number of excitations:        314699828
--- SharcNET Job Epilogue ---
Job ended with signal 1.
               jobid: 1551989
               resid: 3029986
         exit status: 129
      allocated time: 1110150
           user time: 247.66
         system time: 21.12
peak rss=137438953472; peak vsz=140889341952 (bytes)
atime=1110150; utime=247.66; stime=21.12; exit=129


 **********************************************************************
                          MRCC program system
 **********************************************************************
 
                              Written by
    Mihaly Kallay, Zoltan Rolik, Jozsef Csontos, Istvan Ladjanszki,
       Lorant Szegedy, Bence Ladoczki, Gyula Samu, Klara Petrov,
        Mate Farkas, Peter Nagy, David Mester, and Bence Hegely
 
        Department of Physical Chemistry and Materials Science
            Budapest University of Technology and Economics
                  Budapest P.O.Box 91, H-1521 Hungary
 
                              www.mrcc.hu

 ************************ 2018-07-24 06:40:18 *************************
 Executing minp...

 Reading input from MINP...
 
 Input file:
 
# N+ 4Z
basis=aCVQZ-EMSL
iface=cfour
uncontract=off
calc=CC(5)(6)
mem=180GB
core=corr
itol=18
scftol=13
cctol=7
ccmaxit=999
scfmaxit=9999
scfiguess=ao
scftype=ROHF
rohftype=semicanonical
rest=1
charge=+1
refdet=serialno
1,2
3,4

symm=4
mult=3
#occ=3,0,0,0,0,1,0,0/1,0,0,0,0,1,0,0
geom
N

#Li 1 R

#R=3.065

#unit=angstroms

tprint=0.01
verbosity=3
#nstate=4

 
 
 Checking keyword combinations...
 
 Keywords:
 
 active=none
 agrid=ld0006-ld0590
 basis=acvqz-emsl
 basopt=off
 bpcompo=0.985
 bpcompv=0.98
 bpdfo=0.985
 bpocc=0.985
 bppdo=0.985
 bppdv=0.98
 bpedo=0.985
 bpedv=0.98
 calc=cc(5)(6)
 ccmaxit=999
 ccprog=mrcc
 cctol=7
 charge=+1
 cialg=disk
 ciguess=off
 cmpgrp=auto
 core=corr
 corembed=off
 dboc=off
 dendec=cholesky
 dens=0
 dfalg=invsqrt
 dfbasis_cor=none
 dfbasis_scf=none
 dfintran=ovirt
 dft=off
 diag=david
 domrad=10.d0
 drpaalg=fit
 ecp=auto
 edisp=off
 embed=off
 epert=none
 eps=0.975
 excrad=0.d0
 excrad_fin=0.000000000D+00
 freq=off
 gauss=spher
 geom=zmat
 gopt=off
 ghost=none
 gtol=7
 grtol=10
 hamilton=dc
 iface=cfour
 intalg=auto
 itol=18
 lcorthr=loose
 lccrest=off
 lmp2dens=on
 lnoepso=3e-5
 lnoepsv=1e-6
 localcc=off
 locintrf=disk
 maxact=off
 maxex=0
 bfbasis=none
 mem=180gb
 molden=on
 mulmet=0
 mult=3
 nacto=0
 nactv=0
 naf_cor=off
 naf_scf=off
 nafalg=albe
 naftyp=
 nchol=auto
 ndeps=1e-3
 nstate=1
 nsing=0
 ntrip=0
 occ=
 optalg=
 optmaxit=50
 optetol=1e-6
 optgtol=1e-4
 optstol=1e-3
 orblocc=off
 orbloco=off
 orblocv=off
 osveps=1e-3
 ovirt=off
 ovosnorb=80.0
 ptfreq=0.0
 popul=off
 pressure=100000
 qmmm=off
 refdet=serialno
 rest=1
 rgrid=log3
 rohftype=semicanonical
 scspe=1.d0
 scsps=1.2d0
 scspt=0.33333333333333
 scfalg=auto
 scfdamp=off
 scfdiis=on
 scfdiis_end=9999
 scfdiis_start=1
 scfdiis_step=1
 scfdtol=17
 scfext=10
 scfiguess=ao
 scflshift=off
 scfmaxit=9999
 scftype=rohf
 scftol=13
 spairtol=1e-4
 symm=4
 talg=occ
 temp=298.15
 test=off
 tprint=0.01
 uncontract=off
 unit=angs
 verbosity=3
 wpairtol=0.100000000E-05

 ************************ 2018-07-24 06:40:28 *************************
 Executing goldstone...

 Generation of CC equations in terms of H and T...
 Generation of antisymmetrized Goldstone diagrams...
 Number of diagrams in T^1 equations:    15
 Number of diagrams in T^2 equations:    38
 Number of diagrams in T^3 equations:    54
 Number of diagrams in T^4 equations:    81
 Number of diagrams in T^5 equations:   102
 Number of diagrams in T^6 equations:    14
 Translation of diagrams to factorized equations...
 Optimizing intermediate calculation...
 Number of floating-point operations per iteration step:   4.0937E+14
 Probable CPU time per iteration step (hours):   4093.74
 Required memory (Mbytes):  221387.6
 Number of intermediates:                                 164
 Number of intermediates to be stored:                     68
 Length of intermediate file (Mbytes):  173469.9

 ************************ 2018-07-24 06:40:29 *************************
 Executing xmrcc...

 **********************************************************************
 CC(5)(6) calculation 
 
 
 Allocation of****** Mbytes of memory...
 Number of spinorbitals:                   218
 Number of alpha electrons:                        4
 Number of beta electrons:                         2
 Spin multiplicity:                     2
 z-component of spin:  1.0
 Spatial symmetry:                      4
 Convergence criterion:  1.0E-07
 Construction of occupation graphs...
 Number of                     0 -fold excitations:                      1
 Number of                     1 -fold excitations:                    130
 Number of                     2 -fold excitations:                  17759
 Number of                     3 -fold excitations:                1286240
 Number of                     4 -fold excitations:               43922101
 Number of                     5 -fold excitations:              659268250
 Total number of configurations:              704494481
 Calculation of coupling coefficients...
 Length of intermediate file (Mbytes):   89459.3
 
 ======================================================================
 
 Spin case  1   Alpha:  4   Beta:  2
 Number of excitations:             3388288129
 Number of                     6 -fold excitations:             3388288129
 
 Memory requirements /Mbyte/: 
               Minimal        Optimal
 Real*8:     910700.4451    910700.4451
 Integer:      1826.6825
 Total:      912527.1276    912527.1276
 

 ************************ 2018-07-24 06:41:27 *************************
 Executing goldstone...

 Generation of CC equations in terms of H and T...
 Generation of antisymmetrized Goldstone diagrams...
 Number of diagrams in T^1 equations:    15
 Number of diagrams in T^2 equations:    38
 Number of diagrams in T^3 equations:    54
 Number of diagrams in T^4 equations:    81
 Number of diagrams in T^5 equations:   102
 Number of diagrams in T^6 equations:    14
 Translation of diagrams to factorized equations...
 Optimizing intermediate calculation...
 Number of floating-point operations per iteration step:   4.0937E+14
 Probable CPU time per iteration step (hours):   4093.74
 Required memory (Mbytes):  221387.6
 Number of intermediates:                                 164
 Number of intermediates to be stored:                     68
 Length of intermediate file (Mbytes):  173469.9

 ************************ 2018-07-24 06:41:27 *************************
 Executing xmrcc...

 **********************************************************************
 CC(5)(6) calculation 
 
 
 Allocation of****** Mbytes of memory...
 Number of spinorbitals:                   218
 Number of alpha electrons:                        4
 Number of beta electrons:                         2
 Spin multiplicity:                     2
 z-component of spin:  1.0
 Spatial symmetry:                      4
 Convergence criterion:  1.0E-07
 Construction of occupation graphs...
 Number of                     0 -fold excitations:                      1
 Number of                     1 -fold excitations:                    130
 Number of                     2 -fold excitations:                  17759
 Number of                     3 -fold excitations:                1286240
 Number of                     4 -fold excitations:               43922101
 Number of                     5 -fold excitations:              659268250
 Total number of configurations:              704494481
 Calculation of coupling coefficients...
 Length of intermediate file (Mbytes):   89459.3
 
 ======================================================================
 
 Spin case  1   Alpha:  4   Beta:  2
 Number of excitations:             3388288129
 Number of                     6 -fold excitations:             3388288129
 
 Memory requirements /Mbyte/: 
               Minimal        Optimal
 Real*8:     910700.4451    910700.4451
 Integer:      1826.6825
 Total:      912527.1276    912527.1276
 

 ************************ 2018-07-24 06:42:23 *************************
 Executing goldstone...

 Generation of MRCC equations in terms of H and T...
 Generation of antisymmetrized Goldstone diagrams...
 Number of diagrams in T^1 equations:    15
 Number of diagrams in T^2 equations:    38
 Number of diagrams in T^3 equations:    54
 Number of diagrams in T^4 equations:    81
 Number of diagrams in T^5 equations:   102
 Number of diagrams in T^6 equations:    14
 Translation of diagrams to factorized equations...
 Number of restricted diagrams in T^1 equations:     78
 Number of restricted diagrams in T^2 equations:    344
 Number of restricted diagrams in T^3 equations:    892
 Number of restricted diagrams in T^4 equations:   2035
 Number of restricted diagrams in T^5 equations:   3948
 Number of restricted diagrams in T^6 equations:    730
 Optimizing intermediate calculation...
 Number of floating-point operations per iteration step:   3.9989E+14
 Probable CPU time per iteration step (hours):   3998.95
 Required memory (Mbytes):   49059.2
 Number of intermediates:                                1737
 Number of intermediates to be stored:                    693
 Length of intermediate file (Mbytes):  738205.9

 ************************ 2018-07-24 06:42:39 *************************
 Executing xmrcc...

 **********************************************************************
 MRCC(                     6 ) calculation 
 
 
 Allocation of****** Mbytes of memory...
 Number of spinorbitals:                   218
 Number of alpha electrons:                        4
 Number of beta electrons:                         2
 Number of active particles:                   106
 Number of active holes:                         0
 Spin multiplicity:                     2
 z-component of spin:  1.0
 Spatial symmetry:                      4
 Convergence criterion:  1.0E-07
 Construction of occupation graphs...
 Number of                     0 -fold excitations:                      1
 Number of                     1 -fold excitations:                    130
 Number of                     2 -fold excitations:                  17759
 Number of                     3 -fold excitations:                1286240
 Number of                     4 -fold excitations:               43922101
 Number of                     5 -fold excitations:              659268250
 Total number of configurations:              704494481
 Calculation of coupling coefficients...
 Length of intermediate file (Mbytes):  383855.0
 
 ======================================================================
 
 Spin case  1   Alpha:  4   Beta:  2
 Number of excitations:               50443855
 Spin case  2   Alpha:  4   Beta:  2
 Number of excitations:              209824004
 Spin case  3   Alpha:  4   Beta:  2
 Number of excitations:              104773045
 Spin case  4   Alpha:  4   Beta:  2
 Number of excitations:              314699828
 Spin case  5   Alpha:  4   Beta:  2
 Number of excitations:              435784388
 Spin case  6   Alpha:  4   Beta:  2
 Number of excitations:               52384885
 Spin case  7   Alpha:  4   Beta:  2
 Number of excitations:              201736340
 Spin case  8   Alpha:  4   Beta:  2
 Number of excitations:              653561428
 Spin case  9   Alpha:  4   Beta:  2
 Number of excitations:              217893572
 Spin case 10   Alpha:  4   Beta:  2
 Number of excitations:               46636777
 Spin case 11   Alpha:  4   Beta:  2
 Number of excitations:              418968672
 Spin case 12   Alpha:  4   Beta:  2
 Number of excitations:              326795938
 Spin case 13   Alpha:  4   Beta:  2
 Number of excitations:               96862695
 Spin case 14   Alpha:  4   Beta:  2
 Number of excitations:              209491629
 Spin case 15   Alpha:  4   Beta:  2
 Number of excitations:               48431073
 Number of                     6 -fold excitations:             3388288129
 
 Memory requirements /Mbyte/: 
               Minimal        Optimal
 Real*8:     133895.9856    133895.9856
 Integer:      1875.3312
 Total:      135771.3169    135771.3169
 
 The number of active orbitals has been changed!
 It is dangerous to restart the program!

 ************************ 2018-07-24 06:44:47 *************************
 Executing mrcc...

 **********************************************************************
 CC(5)(6) calculation                                                   
 
 
 OpenMP parallel version is running.
 Number of CPUs:  24
 Allocation of******* Mbytes of memory...
 Number of spinorbitals: 218
 Number of alpha electrons:  4
 Number of beta  electrons:  2
 Number of active particles:                   106
 Number of active holes:                         0
 Spin multiplicity: 2
 z-component of spin:  1.0
 Spatial symmetry: 4
 Convergence criterion:  1.0E-07
 Construction of occupation graphs...
 Number of 0-fold excitations: 1
 Number of 1-fold excitations: 130
 Number of 2-fold excitations: 17759
 Number of 3-fold excitations: 1286240
 Number of 4-fold excitations: 43922101
 Number of 5-fold excitations: 659268250
 Total number of determinants: 704494481
 Calculation of coupling coefficients...
 Initial cluster amplitudes are read from unit 16.
 Length of intermediate file (Mbytes):  383855.0
 Reading integral list from unit 55...
 Sorting integrals...
 Sorting integrals...
 Sorting integrals...
 Sorting integrals...
 Energy of reference determinant [au]:     -53.887409027572
 Calculation of MP denominators...
 
 Starting CC iteration...
 ======================================================================
 Norm of residual vector:     0.00000001
 CPU time [min]: 10454.951                   Wall time [min]:  1893.401
 
 Iteration  1  CC energy:   -54.04871988  Energy decrease:   2.4431E-10
 ======================================================================
 
 Iteration has converged in  1 steps.
 
 Final results:
 Total CCSDTQP energy [au]:          -54.048719881579
 
 Perturbative corrections are calculated...
 ======================================================================
 Spin case  1   Alpha:  4   Beta:  2
 Number of excitations:        50443855
 CPU time [min]: 36063.635                   Wall time [min]:  4942.076
 ======================================================================
 Spin case  2   Alpha:  4   Beta:  2
 Number of excitations:        209824004
 CPU time [min]:222415.490                   Wall time [min]: 13925.264
 ======================================================================
 Spin case  3   Alpha:  4   Beta:  2
 Number of excitations:        104773045
 CPU time [min]:293076.385                   Wall time [min]: 17647.675
 ======================================================================
 Spin case  4   Alpha:  4   Beta:  2
 Number of excitations:        314699828
 CPU time [min]:639254.076                   Wall time [min]: 34085.725
 ======================================================================
 Spin case  5   Alpha:  4   Beta:  2
 Number of excitations:        435784388
 
 Fatal error in mrcc.
 Program will stop.
 
 ************************ 2018-09-08 23:27:25 *************************
                   Error at the termination of mrcc.
 **********************************************************************
--- SharcNET Job Epilogue ---
Job returned with status 1.
               jobid: 1557774
               resid: 3034800
         exit status: 1
      allocated time: 4034830
           user time: 61786300
         system time: 363754
peak rss=133612797952; peak vsz=143629393920 (bytes)
atime=4034830; utime=61786300; stime=363754; exit=1


