 --invoking executable--
/home/nike/cfour_v2.00beta/bin/xjoda


   *************************************************************************
         <<<     CCCCCC     CCCCCC   |||     CCCCCC     CCCCCC   >>>
       <<<      CCC        CCC       |||    CCC        CCC         >>>
      <<<      CCC        CCC        |||   CCC        CCC            >>>
    <<<        CCC        CCC        |||   CCC        CCC              >>>
      <<<      CCC        CCC        |||   CCC        CCC            >>>
       <<<      CCC        CCC       |||    CCC        CCC         >>>
         <<<     CCCCCC     CCCCCC   |||     CCCCCC     CCCCCC   >>>
   *************************************************************************

     ****************************************************************
     * CFOUR Coupled-Cluster techniques for Computational Chemistry *
     ****************************************************************
 

   Department of Chemistry                Institut fuer Physikalische Chemie
   University of Texas at Austin          Universitaet Mainz
   Austin, TX  78712, USA                 D-55099 Mainz, Germany
 
                       Version 2.00beta
 
                     wob142                                            
                     Wed Dec 19 18:45:27 EST 2018                      
                     integer*8 version is running
 
********************************************************************************
*                          Input from ZMAT file                                *
********************************************************************************
TITLE                                                                           
N                                                                               
                                                                                
*ACES2(CALC=CCSD                                                                
INPUT_MRCC=OFF                                                                  
CC_PROG=MRCC                                                                    
XFORM_TOL=18                                                                    
SAVE_INTS=ON                                                                    
SCF_EXPORDER=6                                                                  
SCF_EXPSTART=5                                                                  
#SCF_DAMPING=1000                                                               
SCF_EXTRAPOLATION=ON                                                            
SCF_CONV=10                                                                     
SCF_MAXCYC=9999                                                                 
CC_CONV=10                                                                      
CC_MAXCYC=999                                                                   
T3_EXTRAPOL=ON                                                                  
REFERENCE=ROHF                                                                  
CHARGE=+1                                                                       
MULT=3                                                                          
ABCDTYPE=STANDARD                                                               
OCCUPATION=2-1-1-0-0-0-0-0/2-0-0-0-0-0-0-0                                      
MEM=32                                                                          
MEM_UNIT=GB                                                                     
BASIS=SPECIAL)                                                                  
                                                                                
N:aCV6Z-EMOLP                                                                   
                                                                                
********************************************************************************
  @GTFLGS-W, Keyword #SCF_DAMPING not known and is ignored.
    -------------------------------------------------------------------
                    CFOUR Control Parameters 
    -------------------------------------------------------------------
        External           Internal           Value            Units
          Name               Name
    -------------------------------------------------------------------
       ABCDTYPE             IABCDT         STANDARD     [  0]   ***   
       ANHARMONIC           IANHAR         OFF          [  0]   ***   
       ANH_ALGORIT          IANALG         STANDARD     [  0]   ***   
       ANH_DERIVAT          IANDER         SECOND       [  1]   ***   
       ANH_STEPSIZ          ICUBST             50000          x 10-6  
       ANH_SYMMETR          IANHSM         ABELIAN      [  0]   ***   
       AO_LADDERS           IAOLAD         SINGLEPASS   [  1]   ***   
       BASIS                IBASIS         SPECIAL      [  0]   ***   
       BREIT                IBREIT         OFF          [  0]   ***   
       BRUCK_CONV           IBRTOL          10D-  4             ***   
       BRUECKNER            IBRKNR             OFF      [  0]   ***   
       BUFFERSIZE           IBUFFS            600               ***   
       CACHE_RECS           ICHREC             10               ***   
       CALCLEVEL            ICLLVL           CCSD       [ 10]   ***   
       CCORBOPT             ICCORB             OFF      [  0] x 0.01  
       CC_CONV              ICCCNV          10D- 10             ***   
       CC_EXPORDER          ICCEOR              5               ***   
       CC_EXTRAPOL          ICCEXT             DIIS     [  1]   ***   
       CC_MAXCYC            ICCCYC            999              cycles 
       CC_PROGRAM           ICCPRO         MRCC         [  2]   ***   
       CHARGE               ICHRGE              1               ***   
       CHOLESKY             ICHOLE         OFF          [  0]   ***   
       CIS_CONV             ICISTL              5               ***   
       COMM_SIZE            IPSIZE            ***               ***   
       CONSTANT             ICONST         OLD          [  1]   ***   
       CONTINUUM            ICONTU         NONE         [  0]   ***   
       CONTRACTION          ICNTYP          GENERAL     [  1]   ***   
       COORDINATES          ICOORD         INTERNAL     [  0]   ***   
       CPHF_CONVER          ICPHFT          10D- 16             ***   
       CPHF_MAXCYC          ICPHFC             64              cycles 
       CUBIC                ICUBIC         OFF          [  0]   ***   
       CURVILINEAR          ICURVY            OFF       [  0]   ***   
       DBOC                 IDBOC          OFF          [  0]   ***   
       DCT                  IDCT           OFF          [  0]   ***   
       DERIV_LEV            IDRLVL            ZERO      [  0]   ***   
       DIAG_MRCC            IEOMST          10D-  0             ***   
       DIFF_TYPE            IDIFTY         RELAXED      [  0]   ***   
       DIRECT               IDIRCT         OFF          [  0]   ***   
       DROPMO               IDRPMO      NONE         
       ECP                  IECP           OFF          [  0]   ***   
       EIGENVECTOR          IVEC                1               ***   
       EL_ANHARM            IELANH         OFF          [  0]   ***   
       EOMFOLLOW            IEOMSR         ENERGY       [  0]   ***   
       EOM_MRCC             IMRCCE         NEW          [  1]   ***   
       EOM_NONIT            EOMNON         OFF          [  0]   ***   
       EOM_NSING            IEOMSI          10D-  0             ***   
       EOM_NSTATES          IMRCCD         DAVIDSON     [  0]   ***   
       EOM_NTRIP            IEOMTR          10D-  0             ***   
       EOM_ORDER            IEXORD         ENERGY       [  0]   ***   
       ESTATE_CONV          IEXTOL          10D-  5             ***   
       ESTATE_DIAG          IEXDIG         ITERATIVE    [  0]   ***   
       ESTATE_LOCK          IESLOC         ON           [  1]   ***   
       ESTATE_MAXC          IEXMXC             20               ***   
       ESTATE_PROP          IEXPRP         OFF          [  0]   ***   
       EVAL_HESS            IRECAL              0            # of cyc.
       EXCITATION           IEXCIT              0               ***   
       EXCITE               IEXCIT         NONE         [  0]   ***   
       FCGRADNEW            IFCGNW         OFF          [  0]   ***   
       FC_FIELD             IFINFC              0             x 10-6  
       FD_CALTYPE           IFDCAL         GRADONLY     [  0]   ***   
       FD_PROJECT           IFDPRJ         OFF          [  1]   ***   
       FD_STEPSIZE          IDISFD              0            10-4 bohr
       FD_USEGROUP          IFDGRP         FULL         [  0]   ***   
       FILE_RECSIZ          IFLREC              4096           words  
       FINITE_PERT          IFIPER              0             x 10-6  
       FIXGEOM              IFIXGM         OFF          [  0]   ***   
       FOCK                 IFOCK          AO           [  1]   ***   
       FREQ_ALGORI          IVIALG         STANDARD     [  0]   ***   
       FROZEN_CORE          IFROCO         OFF          [  0]   ***   
       FROZEN_VIRT          IFROVI         OFF          [  0]   ***   
       GAMMA_ABCD           IGABCD         STORE        [  0]   ***   
       GAMMA_ABCI           IGABCI         STORE        [  0]   ***   
       GENBAS_1             IGNBS1              0               ***   
       GENBAS_2             IGNBS2              0               ***   
       GENBAS_3             IGNBS3              0               ***   
       GENBAS_4             IGNBS4              0               ***   
       GEO_CONV             ICONTL              5              H/bohr 
       GEO_MAXCYC           IOPTCY             50               ***   
       GEO_MAXSTEP          IMXSTP            300            millibohr
       GEO_METHOD           INR            SINGLE_POINT [  5]   ***   
       GIAO                 IGIAO          OFF          [  1]   ***   
       GIMIC                IGIMIC         OFF          [  0]   ***   
       GRID                 IGRID          OFF          [  0]   ***   
       GRID_ALGO            IGALGO         SERIAL       [  0]   ***   
       GUESS                IGUESS            MOREAD    [  0]   ***   
       HBAR                 IHBAR              OFF      [  0]   ***   
       HESS_TYPE            IHESTP         SCF          [  0]   ***   
       HF2_FILE             IHF2Fl         USE          [  1]   ***   
       HFSTABILITY          ISTABL         OFF          [  0]   ***   
       INCORE               INCORE             OFF      [  0]   ***   
       INPUT_MRCC           IMRCC          OFF          [  0]   ***   
       INTEGRALS            INTTYP             VMOL     [  1]   ***   
       JODA_PRINT           IJPRNT              0               ***   
       LINDEP_TOL           ILINDP              8               ***   
       LINEQ_CONV           IZTACN          10D-  7           cycles  
       LINEQ_EXPOR          ILMAXD              5               ***   
       LINEQ_MAXCY          ILMAXC             50               ***   
       LINEQ_TYPE           ILTYPE         DIIS         [  1]   ***   
       LOCK_ORBOCC          ILOCOC             OFF      [  0]   ***   
       MEMORY_SIZE          IMEMSZ         *********           words  
       MEM_UNIT             IMEMU          GB           [  3]   ***   
       MRCC                 IMRCCC         OFF          [  0]   ***   
       MULTIPLICTY          IMULTP              3               ***   
       NEGEVAL              IDIE             ABORT      [  0]   ***   
       NEWNORM              INEWNO         OFF          [  0]   ***   
       NON-HF               INONHF              ON      [  1]   ***   
       NTOP_TAMP            ITOPT2             15               ***   
       NUC_MODEL            INUCMO         POINT        [  0]   ***   
       OCCUPATION           IOCCU  A   2,  1,  1,  0,  0,  0,  0,  0,
                                   B   2,  0,  0,  0,  0,  0,  0,  0,
       OPEN-SHELL           IOPEN          SPIN-ORBITAL [  0]   ***   
       ORBITALS             IORBTP         SEMICANONICAL[  1]   ***   
       PARALLEL             IPARAL         ON           [  1]   ***   
       PARA_INT             IPINTS         ON           [  1]   ***   
       PARA_PRINT           IPPRIN              0               ***   
       PERT_ORB             IPTORB         STANDARD     [  0]   ***   
       POINTS               IGRDFD              0               ***   
       PRINT                IPRNT               0               ***   
       PROPS                IPROPS             OFF      [  0]   ***   
       PROP_INTEGR          IINTYP         INTERNAL     [  0]   ***   
       PSI                  IPSI           OFF          [  0]   ***   
       QUARTIC              IQUART         OFF          [  0]   ***   
       RAMAN_INT            IRAMIN         OFF          [  0]   ***   
       RAMAN_ORB            IRAMRE         UNRELAXED    [  0]   ***   
       RDO                  IRDOFM             OFF      [  0]   ***   
       REFERENCE            IREFNC             ROHF     [  2]   ***   
       RELATIVIST           IRELAT         OFF          [  0]   ***   
       RELAX_DENS           IRDENS             OFF      [  0]   ***   
       RESET_FLAGS          IRESET             OFF      [  0]   ***   
       RESTART_CC           ICCRES         OFF          [  0]   ***   
       ROT_EVEC             ROTVEC              0               ***   
       SAVE_INTS            ISVINT              ON      [  1]   ***   
       SCALE_ON             ISTCRT              0               ***   
       SCF_CONV             ISCFCV          10D- 10             ***   
       SCF_DAMPING          IDAMP               0             x 10-3  
       SCF_EXPORDE          IRPPOR              6               ***   
       SCF_EXPSTAR          IRPPLS              5               ***   
       SCF_EXTRAPO          IRPP                ON      [  1]   ***   
       SCF_MAXCYC           ISCFCY            ***              cycles 
       SCF_NOSTOP           ISCFST         OFF          [  0]   ***   
       SCF_PRINT            ISCFPR              0               ***   
       SD_FIELD             IFINSD              0             x 10-6  
       SEQUENCE             ISEQUE         OFF          [  0]   ***   
       SOPERT               IPERSO         OFF          [  0]   ***   
       SPHERICAL            IDFGHI             ON       [  1]   ***   
       SPINORBIT            ISOCAL         OFF          [  0]   ***   
       SPINROTATIO          ISRCON         OFF          [  0]   ***   
       SPIN_FLIP            ISPFLP         OFF          [  0]   ***   
       SPIN_ORBIT           ISPORB         OFF          [  0]   ***   
       SPIN_SCAL            ISCSMP         OFF          [  0]   ***   
       SUBGROUP             ISUBGP         DEFAULT      [  0]   ***   
       SUBGRPAXIS           ISBXYZ         X            [  0]   ***   
       SYMMETRY             ISYM             ON         [  0]   ***   
       SYM_CHECK            ISYMCK         OVERRIDE     [  1]   ***   
       T3_EXTRAPOL          IT3EXT         ON           [  1]   ***   
       TAMP_SUM             IEVERY              5               ***   
       TESTSUITE            ITESTS         OFF          [  0]   ***   
       THERMOCH             ITHERM         OFF          [  0]   ***   
       TOL_CHOLESK          ITOLCH          10D-  4             ***   
       TRANGRAD             IRESRM         OFF          [  0]   ***   
       TRANS_INV            ITRAIN         USE          [  0]   ***   
       TREAT_PERT           ITREAT         SIMULTANEOUS [  0]   ***   
       UIJ_THRESHO          IUIJTH              1               ***   
       UNITS                IUNITS         ANGSTROM     [  0]   ***   
       UNOS                 IUNOS          OFF          [  0]   ***   
       UPDATE_HESS          IHUPDT         ON           [  1]   ***   
       VIBPHASE             ISETPH         STANDARD     [  0]   ***   
       VIBRATION            IVIB              NO        [  0]   ***   
       VIB_ALGORIT          IGEALG         STANDARD     [  0]   ***   
       VNATORB              IVNORB         OFF          [  0]   ***   
       VTRAN                IVTRAN         FULL/PARTIAL [  0]   ***   
       XFIELD               IXEFLD              0             x 10-6  
       XFORM_TOL            IXFTOL          10D- 18             ***   
       YFIELD               IYEFLD              0             x 10-6  
       ZFIELD               IZEFLD              0             x 10-6  
    -------------------------------------------------------------------
   1 entries found in Z-matrix 
   Job Title : TITLE                                                                           
  1  N          7    14.00307
 factor:   60.1997200000000     
   Rotational constants (in cm-1): 

   Rotational constants (in MHz): 

********************************************************************************
   The full molecular point group is I h .
   The largest Abelian subgroup of the full molecular point group is D2h .
   The computational point group is D2h .
********************************************************************************
  @GTFLGS-W, Keyword #SCF_DAMPING not known and is ignored.
  There are  279 basis functions.
 @GEOPT-W, Archive file not created for single-point calculation.
  @CHECKOUT-I, Total execution time (CPU/WALL):        0.12/       0.33 seconds.
--executable xjoda finished with status     0 in        0.62 seconds (walltime).
 --invoking executable--
/home/nike/cfour_v2.00beta/bin/xvmol
 Serial version of molecule started
********************************************************************************
                    Input from MOL file
********************************************************************************
INTGRL        1    0    1    0    0    0    0    0    0                         
         *** CFOUR Program System (Release V0.1) ***                            
TITLE                                                                           
    1    3 X  Y   Z   0.10E-08              0    0                              
   9999.00      3.00                                                            
          7.00000000    1    7    1    1    1    1    1    1    1               
N #1   0.000000000000000   0.000000000000000   0.000000000000000                
   22   13                                                                      
   432300.000000000       5.500000000000000E-006 -1.200000000000000E-006        
  0.000000000000000E+000  0.000000000000000E+000  0.000000000000000E+000        
  0.000000000000000E+000  0.000000000000000E+000  0.000000000000000E+000        
  0.000000000000000E+000  0.000000000000000E+000  0.000000000000000E+000        
  0.000000000000000E+000  0.000000000000000E+000                                
   64700.0000000000       4.350000000000000E-005 -9.500000000000001E-006        
  0.000000000000000E+000  0.000000000000000E+000  0.000000000000000E+000        
  0.000000000000000E+000  0.000000000000000E+000  0.000000000000000E+000        
  0.000000000000000E+000  0.000000000000000E+000  0.000000000000000E+000        
  0.000000000000000E+000  0.000000000000000E+000                                
   14720.0000000000       2.289000000000000E-004 -5.050000000000000E-005        
  0.000000000000000E+000  0.000000000000000E+000  0.000000000000000E+000        
  0.000000000000000E+000  0.000000000000000E+000  0.000000000000000E+000        
  0.000000000000000E+000  0.000000000000000E+000  0.000000000000000E+000        
  0.000000000000000E+000  0.000000000000000E+000                                
   4170.00000000000       9.650000000000000E-004 -2.126000000000000E-004        
  0.000000000000000E+000  0.000000000000000E+000  0.000000000000000E+000        
  0.000000000000000E+000  0.000000000000000E+000  0.000000000000000E+000        
  0.000000000000000E+000  0.000000000000000E+000  0.000000000000000E+000        
  0.000000000000000E+000  0.000000000000000E+000                                
   1361.00000000000       3.502100000000000E-003 -7.753000000000000E-004        
  0.000000000000000E+000  0.000000000000000E+000  0.000000000000000E+000        
  0.000000000000000E+000  0.000000000000000E+000  0.000000000000000E+000        
  0.000000000000000E+000  0.000000000000000E+000  0.000000000000000E+000        
  0.000000000000000E+000  0.000000000000000E+000                                
   491.200000000000       1.129210000000000E-002 -2.506200000000000E-003        
  0.000000000000000E+000  0.000000000000000E+000  0.000000000000000E+000        
  0.000000000000000E+000  0.000000000000000E+000  0.000000000000000E+000        
  0.000000000000000E+000  0.000000000000000E+000  0.000000000000000E+000        
  0.000000000000000E+000  0.000000000000000E+000                                
   191.600000000000       3.261280000000000E-002 -7.365200000000000E-003        
  0.000000000000000E+000  0.000000000000000E+000  0.000000000000000E+000        
  0.000000000000000E+000  0.000000000000000E+000  0.000000000000000E+000        
  0.000000000000000E+000  0.000000000000000E+000  0.000000000000000E+000        
  0.000000000000000E+000  0.000000000000000E+000                                
   79.4100000000000       8.329720000000000E-002 -1.930160000000000E-002        
  0.000000000000000E+000  0.000000000000000E+000  0.000000000000000E+000        
  0.000000000000000E+000  0.000000000000000E+000  0.000000000000000E+000        
  0.000000000000000E+000  0.000000000000000E+000  0.000000000000000E+000        
  0.000000000000000E+000  0.000000000000000E+000                                
   34.5300000000000       0.179985600000000      -4.471730000000000E-002        
  0.000000000000000E+000  0.000000000000000E+000  0.000000000000000E+000        
  0.000000000000000E+000  0.000000000000000E+000  0.000000000000000E+000        
  0.000000000000000E+000  0.000000000000000E+000  0.000000000000000E+000        
  0.000000000000000E+000  0.000000000000000E+000                                
   15.5800000000000       0.305003500000000      -8.606640000000000E-002        
  0.000000000000000E+000  0.000000000000000E+000  0.000000000000000E+000        
  0.000000000000000E+000  0.000000000000000E+000  0.000000000000000E+000        
  0.000000000000000E+000  0.000000000000000E+000  0.000000000000000E+000        
  0.000000000000000E+000  0.000000000000000E+000                                
   7.23200000000000       0.341159300000000      -0.133296200000000             
  0.000000000000000E+000  0.000000000000000E+000  0.000000000000000E+000        
  0.000000000000000E+000  0.000000000000000E+000  0.000000000000000E+000        
  0.000000000000000E+000  0.000000000000000E+000  0.000000000000000E+000        
  0.000000000000000E+000  0.000000000000000E+000                                
   3.38200000000000       0.000000000000000E+000  0.000000000000000E+000        
   1.00000000000000       0.000000000000000E+000  0.000000000000000E+000        
  0.000000000000000E+000  0.000000000000000E+000  0.000000000000000E+000        
  0.000000000000000E+000  0.000000000000000E+000  0.000000000000000E+000        
  0.000000000000000E+000  0.000000000000000E+000                                
   1.36900000000000       0.000000000000000E+000  0.000000000000000E+000        
  0.000000000000000E+000   1.00000000000000       0.000000000000000E+000        
  0.000000000000000E+000  0.000000000000000E+000  0.000000000000000E+000        
  0.000000000000000E+000  0.000000000000000E+000  0.000000000000000E+000        
  0.000000000000000E+000  0.000000000000000E+000                                
  0.624800000000000       0.000000000000000E+000  0.000000000000000E+000        
  0.000000000000000E+000  0.000000000000000E+000   1.00000000000000             
  0.000000000000000E+000  0.000000000000000E+000  0.000000000000000E+000        
  0.000000000000000E+000  0.000000000000000E+000  0.000000000000000E+000        
  0.000000000000000E+000  0.000000000000000E+000                                
  0.274700000000000       0.000000000000000E+000  0.000000000000000E+000        
  0.000000000000000E+000  0.000000000000000E+000  0.000000000000000E+000        
   1.00000000000000       0.000000000000000E+000  0.000000000000000E+000        
  0.000000000000000E+000  0.000000000000000E+000  0.000000000000000E+000        
  0.000000000000000E+000  0.000000000000000E+000                                
  0.119200000000000       0.000000000000000E+000  0.000000000000000E+000        
  0.000000000000000E+000  0.000000000000000E+000  0.000000000000000E+000        
  0.000000000000000E+000   1.00000000000000       0.000000000000000E+000        
  0.000000000000000E+000  0.000000000000000E+000  0.000000000000000E+000        
  0.000000000000000E+000  0.000000000000000E+000                                
   246.262000000000       0.000000000000000E+000  0.000000000000000E+000        
  0.000000000000000E+000  0.000000000000000E+000  0.000000000000000E+000        
  0.000000000000000E+000  0.000000000000000E+000   1.00000000000000             
  0.000000000000000E+000  0.000000000000000E+000  0.000000000000000E+000        
  0.000000000000000E+000  0.000000000000000E+000                                
   124.187000000000       0.000000000000000E+000  0.000000000000000E+000        
  0.000000000000000E+000  0.000000000000000E+000  0.000000000000000E+000        
  0.000000000000000E+000  0.000000000000000E+000  0.000000000000000E+000        
   1.00000000000000       0.000000000000000E+000  0.000000000000000E+000        
  0.000000000000000E+000  0.000000000000000E+000                                
   62.6260000000000       0.000000000000000E+000  0.000000000000000E+000        
  0.000000000000000E+000  0.000000000000000E+000  0.000000000000000E+000        
  0.000000000000000E+000  0.000000000000000E+000  0.000000000000000E+000        
  0.000000000000000E+000   1.00000000000000       0.000000000000000E+000        
  0.000000000000000E+000  0.000000000000000E+000                                
   31.5810000000000       0.000000000000000E+000  0.000000000000000E+000        
  0.000000000000000E+000  0.000000000000000E+000  0.000000000000000E+000        
  0.000000000000000E+000  0.000000000000000E+000  0.000000000000000E+000        
  0.000000000000000E+000  0.000000000000000E+000   1.00000000000000             
  0.000000000000000E+000  0.000000000000000E+000                                
   15.9260000000000       0.000000000000000E+000  0.000000000000000E+000        
  0.000000000000000E+000  0.000000000000000E+000  0.000000000000000E+000        
  0.000000000000000E+000  0.000000000000000E+000  0.000000000000000E+000        
  0.000000000000000E+000  0.000000000000000E+000  0.000000000000000E+000        
   1.00000000000000       0.000000000000000E+000                                
  4.714000000000000E-002  0.000000000000000E+000  0.000000000000000E+000        
  0.000000000000000E+000  0.000000000000000E+000  0.000000000000000E+000        
  0.000000000000000E+000  0.000000000000000E+000  0.000000000000000E+000        
  0.000000000000000E+000  0.000000000000000E+000  0.000000000000000E+000        
  0.000000000000000E+000   1.00000000000000                                     
   16   12                                                                      
   415.900000000000       1.484000000000000E-004  0.000000000000000E+000        
  0.000000000000000E+000  0.000000000000000E+000  0.000000000000000E+000        
  0.000000000000000E+000  0.000000000000000E+000  0.000000000000000E+000        
  0.000000000000000E+000  0.000000000000000E+000  0.000000000000000E+000        
  0.000000000000000E+000                                                        
   98.6100000000000       1.276300000000000E-003  0.000000000000000E+000        
  0.000000000000000E+000  0.000000000000000E+000  0.000000000000000E+000        
  0.000000000000000E+000  0.000000000000000E+000  0.000000000000000E+000        
  0.000000000000000E+000  0.000000000000000E+000  0.000000000000000E+000        
  0.000000000000000E+000                                                        
   31.9200000000000       6.702400000000000E-003  0.000000000000000E+000        
  0.000000000000000E+000  0.000000000000000E+000  0.000000000000000E+000        
  0.000000000000000E+000  0.000000000000000E+000  0.000000000000000E+000        
  0.000000000000000E+000  0.000000000000000E+000  0.000000000000000E+000        
  0.000000000000000E+000                                                        
   12.0000000000000       2.526170000000000E-002  0.000000000000000E+000        
  0.000000000000000E+000  0.000000000000000E+000  0.000000000000000E+000        
  0.000000000000000E+000  0.000000000000000E+000  0.000000000000000E+000        
  0.000000000000000E+000  0.000000000000000E+000  0.000000000000000E+000        
  0.000000000000000E+000                                                        
   4.91900000000000       7.518940000000000E-002  0.000000000000000E+000        
  0.000000000000000E+000  0.000000000000000E+000  0.000000000000000E+000        
  0.000000000000000E+000  0.000000000000000E+000  0.000000000000000E+000        
  0.000000000000000E+000  0.000000000000000E+000  0.000000000000000E+000        
  0.000000000000000E+000                                                        
   2.14800000000000       0.000000000000000E+000   1.00000000000000             
  0.000000000000000E+000  0.000000000000000E+000  0.000000000000000E+000        
  0.000000000000000E+000  0.000000000000000E+000  0.000000000000000E+000        
  0.000000000000000E+000  0.000000000000000E+000  0.000000000000000E+000        
  0.000000000000000E+000                                                        
  0.969600000000000       0.000000000000000E+000  0.000000000000000E+000        
   1.00000000000000       0.000000000000000E+000  0.000000000000000E+000        
  0.000000000000000E+000  0.000000000000000E+000  0.000000000000000E+000        
  0.000000000000000E+000  0.000000000000000E+000  0.000000000000000E+000        
  0.000000000000000E+000                                                        
  0.439900000000000       0.000000000000000E+000  0.000000000000000E+000        
  0.000000000000000E+000   1.00000000000000       0.000000000000000E+000        
  0.000000000000000E+000  0.000000000000000E+000  0.000000000000000E+000        
  0.000000000000000E+000  0.000000000000000E+000  0.000000000000000E+000        
  0.000000000000000E+000                                                        
  0.197800000000000       0.000000000000000E+000  0.000000000000000E+000        
  0.000000000000000E+000  0.000000000000000E+000   1.00000000000000             
  0.000000000000000E+000  0.000000000000000E+000  0.000000000000000E+000        
  0.000000000000000E+000  0.000000000000000E+000  0.000000000000000E+000        
  0.000000000000000E+000                                                        
  8.603000000000000E-002  0.000000000000000E+000  0.000000000000000E+000        
  0.000000000000000E+000  0.000000000000000E+000  0.000000000000000E+000        
   1.00000000000000       0.000000000000000E+000  0.000000000000000E+000        
  0.000000000000000E+000  0.000000000000000E+000  0.000000000000000E+000        
  0.000000000000000E+000                                                        
   270.142000000000       0.000000000000000E+000  0.000000000000000E+000        
  0.000000000000000E+000  0.000000000000000E+000  0.000000000000000E+000        
  0.000000000000000E+000   1.00000000000000       0.000000000000000E+000        
  0.000000000000000E+000  0.000000000000000E+000  0.000000000000000E+000        
  0.000000000000000E+000                                                        
   123.465000000000       0.000000000000000E+000  0.000000000000000E+000        
  0.000000000000000E+000  0.000000000000000E+000  0.000000000000000E+000        
  0.000000000000000E+000  0.000000000000000E+000   1.00000000000000             
  0.000000000000000E+000  0.000000000000000E+000  0.000000000000000E+000        
  0.000000000000000E+000                                                        
   56.4280000000000       0.000000000000000E+000  0.000000000000000E+000        
  0.000000000000000E+000  0.000000000000000E+000  0.000000000000000E+000        
  0.000000000000000E+000  0.000000000000000E+000  0.000000000000000E+000        
   1.00000000000000       0.000000000000000E+000  0.000000000000000E+000        
  0.000000000000000E+000                                                        
   25.7900000000000       0.000000000000000E+000  0.000000000000000E+000        
  0.000000000000000E+000  0.000000000000000E+000  0.000000000000000E+000        
  0.000000000000000E+000  0.000000000000000E+000  0.000000000000000E+000        
  0.000000000000000E+000   1.00000000000000       0.000000000000000E+000        
  0.000000000000000E+000                                                        
   11.7870000000000       0.000000000000000E+000  0.000000000000000E+000        
  0.000000000000000E+000  0.000000000000000E+000  0.000000000000000E+000        
  0.000000000000000E+000  0.000000000000000E+000  0.000000000000000E+000        
  0.000000000000000E+000  0.000000000000000E+000   1.00000000000000             
  0.000000000000000E+000                                                        
  3.150000000000000E-002  0.000000000000000E+000  0.000000000000000E+000        
  0.000000000000000E+000  0.000000000000000E+000  0.000000000000000E+000        
  0.000000000000000E+000  0.000000000000000E+000  0.000000000000000E+000        
  0.000000000000000E+000  0.000000000000000E+000  0.000000000000000E+000        
   1.00000000000000                                                             
   10   10                                                                      
   6.71700000000000        1.00000000000000       0.000000000000000E+000        
  0.000000000000000E+000  0.000000000000000E+000  0.000000000000000E+000        
  0.000000000000000E+000  0.000000000000000E+000  0.000000000000000E+000        
  0.000000000000000E+000  0.000000000000000E+000                                
   2.89600000000000       0.000000000000000E+000   1.00000000000000             
  0.000000000000000E+000  0.000000000000000E+000  0.000000000000000E+000        
  0.000000000000000E+000  0.000000000000000E+000  0.000000000000000E+000        
  0.000000000000000E+000  0.000000000000000E+000                                
   1.24900000000000       0.000000000000000E+000  0.000000000000000E+000        
   1.00000000000000       0.000000000000000E+000  0.000000000000000E+000        
  0.000000000000000E+000  0.000000000000000E+000  0.000000000000000E+000        
  0.000000000000000E+000  0.000000000000000E+000                                
  0.538000000000000       0.000000000000000E+000  0.000000000000000E+000        
  0.000000000000000E+000   1.00000000000000       0.000000000000000E+000        
  0.000000000000000E+000  0.000000000000000E+000  0.000000000000000E+000        
  0.000000000000000E+000  0.000000000000000E+000                                
  0.232000000000000       0.000000000000000E+000  0.000000000000000E+000        
  0.000000000000000E+000  0.000000000000000E+000   1.00000000000000             
  0.000000000000000E+000  0.000000000000000E+000  0.000000000000000E+000        
  0.000000000000000E+000  0.000000000000000E+000                                
   199.920000000000       0.000000000000000E+000  0.000000000000000E+000        
  0.000000000000000E+000  0.000000000000000E+000  0.000000000000000E+000        
   1.00000000000000       0.000000000000000E+000  0.000000000000000E+000        
  0.000000000000000E+000  0.000000000000000E+000                                
   87.1110000000000       0.000000000000000E+000  0.000000000000000E+000        
  0.000000000000000E+000  0.000000000000000E+000  0.000000000000000E+000        
  0.000000000000000E+000   1.00000000000000       0.000000000000000E+000        
  0.000000000000000E+000  0.000000000000000E+000                                
   37.9570000000000       0.000000000000000E+000  0.000000000000000E+000        
  0.000000000000000E+000  0.000000000000000E+000  0.000000000000000E+000        
  0.000000000000000E+000  0.000000000000000E+000   1.00000000000000             
  0.000000000000000E+000  0.000000000000000E+000                                
   16.5390000000000       0.000000000000000E+000  0.000000000000000E+000        
  0.000000000000000E+000  0.000000000000000E+000  0.000000000000000E+000        
  0.000000000000000E+000  0.000000000000000E+000  0.000000000000000E+000        
   1.00000000000000       0.000000000000000E+000                                
  8.740000000000001E-002  0.000000000000000E+000  0.000000000000000E+000        
  0.000000000000000E+000  0.000000000000000E+000  0.000000000000000E+000        
  0.000000000000000E+000  0.000000000000000E+000  0.000000000000000E+000        
  0.000000000000000E+000   1.00000000000000                                     
    8    8                                                                      
   3.82900000000000        1.00000000000000       0.000000000000000E+000        
  0.000000000000000E+000  0.000000000000000E+000  0.000000000000000E+000        
  0.000000000000000E+000  0.000000000000000E+000  0.000000000000000E+000        
   1.79500000000000       0.000000000000000E+000   1.00000000000000             
  0.000000000000000E+000  0.000000000000000E+000  0.000000000000000E+000        
  0.000000000000000E+000  0.000000000000000E+000  0.000000000000000E+000        
  0.841000000000000       0.000000000000000E+000  0.000000000000000E+000        
   1.00000000000000       0.000000000000000E+000  0.000000000000000E+000        
  0.000000000000000E+000  0.000000000000000E+000  0.000000000000000E+000        
  0.394000000000000       0.000000000000000E+000  0.000000000000000E+000        
  0.000000000000000E+000   1.00000000000000       0.000000000000000E+000        
  0.000000000000000E+000  0.000000000000000E+000  0.000000000000000E+000        
   105.346000000000       0.000000000000000E+000  0.000000000000000E+000        
  0.000000000000000E+000  0.000000000000000E+000   1.00000000000000             
  0.000000000000000E+000  0.000000000000000E+000  0.000000000000000E+000        
   37.5300000000000       0.000000000000000E+000  0.000000000000000E+000        
  0.000000000000000E+000  0.000000000000000E+000  0.000000000000000E+000        
   1.00000000000000       0.000000000000000E+000  0.000000000000000E+000        
   13.3700000000000       0.000000000000000E+000  0.000000000000000E+000        
  0.000000000000000E+000  0.000000000000000E+000  0.000000000000000E+000        
  0.000000000000000E+000   1.00000000000000       0.000000000000000E+000        
  0.151000000000000       0.000000000000000E+000  0.000000000000000E+000        
  0.000000000000000E+000  0.000000000000000E+000  0.000000000000000E+000        
  0.000000000000000E+000  0.000000000000000E+000   1.00000000000000             
    6    6                                                                      
   3.85600000000000        1.00000000000000       0.000000000000000E+000        
  0.000000000000000E+000  0.000000000000000E+000  0.000000000000000E+000        
  0.000000000000000E+000                                                        
   1.70200000000000       0.000000000000000E+000   1.00000000000000             
  0.000000000000000E+000  0.000000000000000E+000  0.000000000000000E+000        
  0.000000000000000E+000                                                        
  0.751000000000000       0.000000000000000E+000  0.000000000000000E+000        
   1.00000000000000       0.000000000000000E+000  0.000000000000000E+000        
  0.000000000000000E+000                                                        
   67.1880000000000       0.000000000000000E+000  0.000000000000000E+000        
  0.000000000000000E+000   1.00000000000000       0.000000000000000E+000        
  0.000000000000000E+000                                                        
   20.3600000000000       0.000000000000000E+000  0.000000000000000E+000        
  0.000000000000000E+000  0.000000000000000E+000   1.00000000000000             
  0.000000000000000E+000                                                        
  0.326000000000000       0.000000000000000E+000  0.000000000000000E+000        
  0.000000000000000E+000  0.000000000000000E+000  0.000000000000000E+000        
   1.00000000000000                                                             
    4    4                                                                      
   2.87500000000000        1.00000000000000       0.000000000000000E+000        
  0.000000000000000E+000  0.000000000000000E+000                                
   1.17000000000000       0.000000000000000E+000   1.00000000000000             
  0.000000000000000E+000  0.000000000000000E+000                                
   52.0500000000000       0.000000000000000E+000  0.000000000000000E+000        
   1.00000000000000       0.000000000000000E+000                                
  0.587000000000000       0.000000000000000E+000  0.000000000000000E+000        
  0.000000000000000E+000   1.00000000000000                                     
    2    2                                                                      
   2.09900000000000        1.00000000000000       0.000000000000000E+000        
   1.04100000000000       0.000000000000000E+000   1.00000000000000             
FINISH                                                                          
 
********************************************************************************
 One- and two-electron integrals over symmetry-adapted AOs are calculated.

  Spherical harmonics are used.
  
  Integrals less than  0.10E-13 are neglected.

   Basis function not normalized: 
   Center (as ordered in MOL file):   1
   Angular Momentum type          : s
   Offset within angular momentum :  1
   <chi|chi>                      :    1.1714440624
   Basis function not normalized: 
   Center (as ordered in MOL file):   1
   Angular Momentum type          : s
   Offset within angular momentum :  2
   <chi|chi>                      :    3.7623155081
   Basis function not normalized: 
   Center (as ordered in MOL file):   1
   Angular Momentum type          : p
   Offset within angular momentum :  1
   <chi|chi>                      :    9.9907394657
  Nuclear repulsion energy :    0.0000000000 a.u.
  required memory for a1 array               77218834  words 
  required memory for a2 array              133231759  words 
 @GETMEM-I,  Allocated    1620 MB of main memory.
  @MOLECU-I, One electron integrals (CPU/WALL):        0.39/       0.42 seconds.
  @TWOEL-I,    1836219 integrals of symmetry type  I I I I
  @TWOEL-I,   17030369 integrals of symmetry type  I J I J
  @TWOEL-I,    9600838 integrals of symmetry type  I I J J
  @TWOEL-I,   42365946 integrals of symmetry type  I J K L
  @TWOEL-I, Total number of 2-e integrals   70833372.
  @MOLECU-I, Two electron integrals (CPU/WALL):      259.96/     261.32 seconds.
  @CHECKOUT-I, Total execution time (CPU/WALL):      260.53/     261.95 seconds.
--executable xvmol finished with status     0 in      262.24 seconds (walltime).
 --invoking executable--
/home/nike/cfour_v2.00beta/bin/xvmol2ja
 @GETMEM-I,  Allocated   30517 MB of main memory.
  @CHECKOUT-I, Total execution time (CPU/WALL):        0.02/       0.02 seconds.
--executable xvmol2ja finished with status     0 in        0.35 seconds (walltime).
 --invoking executable--
/home/nike/cfour_v2.00beta/bin/xvscf
  There are  279 functions in the AO basis.

  There are 8 irreducible representations.

       Irrep        # of functions
         1                 59
         2                 40
         3                 40
         4                 28
         5                 40
         6                 28
         7                 28
         8                 16


  Parameters for SCF calculation: 
        SCF reference function: ROHF  
  Maximum number of iterations: 9999
     Full symmetry point group: I h 
     Computational point group: D2h 
        Initial density matrix: MOREAD                 
     SCF convergence tolerance: 10**(-10)
  DIIS convergence acceleration:  ON
          Latest start for DIIS:   5
                     DIIS order:   6

     Alpha population by irrep:   2    1    1    0    0    0    0    0
      Beta population by irrep:   2    0    0    0    0    0    0    0


  Memory information:    5506270 words required.
  Fock matrices are constructed from AO integral file.
 @GETMEM-I,  Allocated      42 MB of main memory.
  Initialization and symmetry analysis required      0.001 seconds.

 total no. of electrons in initial guess :  0.000000000000000E+000
 total no. of electrons in initial guess :  0.000000000000000E+000
  --------------------------------------------------------------------
  Iteration         Total Energy            Largest Density Difference
  --------------------------------------------------------------------
       0             0.000000000000000              0.0000000000D+00
   current occupation vector 
     2  1  1  0  0  0  0  0
     2  0  0  0  0  0  0  0
       1           -50.666413436976327              0.9411126112D+00
   current occupation vector 
     2  1  1  0  0  0  0  0
     2  0  0  0  0  0  0  0
       2           -52.790050046950903              0.5087271828D+00
   current occupation vector 
     2  1  1  0  0  0  0  0
     2  0  0  0  0  0  0  0
       3           -53.852168144388841              0.1570172832D+00
   current occupation vector 
     2  1  1  0  0  0  0  0
     2  0  0  0  0  0  0  0
       4           -53.887213291588225              0.7315123586D-01
   current occupation vector 
     2  1  1  0  0  0  0  0
     2  0  0  0  0  0  0  0
       5           -53.888029130425465              0.1400163831D-01
   current occupation vector 
     2  1  1  0  0  0  0  0
     2  0  0  0  0  0  0  0
       6           -53.888058830950975              0.2496855662D-02
   current occupation vector 
     2  1  1  0  0  0  0  0
     2  0  0  0  0  0  0  0
       7           -53.888060616329952              0.7433280306D-03
   current occupation vector 
     2  1  1  0  0  0  0  0
     2  0  0  0  0  0  0  0
       8           -53.888060887002894              0.1890558453D-03
   current occupation vector 
     2  1  1  0  0  0  0  0
     2  0  0  0  0  0  0  0
       9           -53.888060887390111              0.7331872900D-05
   current occupation vector 
     2  1  1  0  0  0  0  0
     2  0  0  0  0  0  0  0
      10           -53.888060887400563              0.1956161400D-05
   current occupation vector 
     2  1  1  0  0  0  0  0
     2  0  0  0  0  0  0  0
      11           -53.888060887401373              0.3952941857D-06
   current occupation vector 
     2  1  1  0  0  0  0  0
     2  0  0  0  0  0  0  0
      12           -53.888060887401203              0.1812350287D-07
   current occupation vector 
     2  1  1  0  0  0  0  0
     2  0  0  0  0  0  0  0
      13           -53.888060887401451              0.1757930190D-08
   current occupation vector 
     2  1  1  0  0  0  0  0
     2  0  0  0  0  0  0  0
      14           -53.888060887401430              0.1406348371D-09
   current occupation vector 
     2  1  1  0  0  0  0  0
     2  0  0  0  0  0  0  0

  SCF has converged.

 Density matrix saved to file den.dat
 total alpha spin electron number:   4.00000000000001     
 total  beta spin electron number:   2.00000000000000     
     E(ROHF)=       -53.888060887401238              0.7412714886D-10

  Eigenvector printing suppressed.


       The average multiplicity is    3.0000000
  The expectation value of S**2 is    2.0000000

 @PUTMOS-I, Writing converged MOs to NEWMOS. 
 @PUTMOS-I, Symmetry   1 Full Blocks 14 Partial Blocksize   3
 @PUTMOS-I, Symmetry   2 Full Blocks 10 Partial Blocksize   0
 @PUTMOS-I, Symmetry   3 Full Blocks 10 Partial Blocksize   0
 @PUTMOS-I, Symmetry   4 Full Blocks  7 Partial Blocksize   0
 @PUTMOS-I, Symmetry   5 Full Blocks 10 Partial Blocksize   0
 @PUTMOS-I, Symmetry   6 Full Blocks  7 Partial Blocksize   0
 @PUTMOS-I, Symmetry   7 Full Blocks  7 Partial Blocksize   0
 @PUTMOS-I, Symmetry   8 Full Blocks  4 Partial Blocksize   0
  @DMPJOB-I, Rotating orbitals to semicanonical basis.
             *** Eigenvalues correspond to new basis. ***

  @PRJDEN-I, Basis set contains h and/or higher angular momentum functions.
             Analysis of density matrix symmetry not available.
             Check irreps of the molecular orbitals in the full point group
             for presence of an asymmetric solution.

 
  ORBITAL EIGENVALUES (ALPHA)  (1H = 27.2113838 eV)

       MO #        E(hartree)               E(eV)           FULLSYM    COMPSYM
       ----   --------------------   --------------------   -------   ---------
    1     1         -16.3207329115        -444.1097274709      Ag        Ag (1)
    2     2          -1.6128378037         -43.8875485143      Ag        Ag (1)
    3   100          -1.1101372023         -30.2083695029       u       B3u (3)
    4    60          -1.1101372023         -30.2083695029       u       B2u (2)
  +++++++++++++++++++++++++++++++++++++++++++++++++++++++++++++++++++++++++++++
    5   168          -0.4672991917         -12.7158576633      Au       B1u (5)
    6     3          -0.1366748433          -3.7191116186      Ag        Ag (1)
    7   101          -0.0939323630          -2.5560295814       u       B3u (3)
    8    61          -0.0939323630          -2.5560295814       u       B2u (2)
    9   169          -0.0888085699          -2.4166040831      Au       B1u (5)
   10     4           0.0357121966           0.9717782898      Ag        Ag (1)
   11   236           0.0365121818           0.9935469933       g       B2g (7)
   12   208           0.0365121818           0.9935469933       g       B3g (6)
   13     5           0.0391171647           1.0644321817       g        Ag (1)
   14   140           0.0391171647           1.0644321817       g       B1g (4)
   15   102           0.0723023057           1.9674457925       u       B3u (3)
   16    62           0.0723023057           1.9674457925       u       B2u (2)
   17   170           0.0877101526           2.3867146266      Au       B1u (5)
   18     6           0.1641617350           4.4670679804      Ag        Ag (1)
   19   171           0.3570431423           9.7156379860      Au       B1u (5)
   20    63           0.3579194448           9.7394833881       u       B2u (2)
   21   103           0.3579194448           9.7394833881       u       B3u (3)
   22   172           0.3605638831           9.8114422148       u       B1u (5)
   23   264           0.3605638831           9.8114422148       u        Au (8)
   24    64           0.3650301632           9.9329758774       u       B2u (2)
   25   104           0.3650301632           9.9329758774       u       B3u (3)
   26   141           0.4771946658          12.9851272087       g       B1g (4)
   27     7           0.4771946658          12.9851272087       g        Ag (1)
   28   237           0.4805332346          13.0759742836       g       B2g (7)
   29   209           0.4805332346          13.0759742836       g       B3g (6)
   30     8           0.4818316858          13.1113069374      Ag        Ag (1)
   31    65           0.5939963227          16.1634619254       u       B2u (2)
   32   105           0.5939963227          16.1634619254       u       B3u (3)
   33   173           0.6250467709          17.0083875884      Au       B1u (5)
   34     9           1.1542137925          31.4077545184      Ag        Ag (1)
   35    10           1.2962811577          35.2736041215      Ag        Ag (1)
   36   238           1.2973109878          35.3016272235       g       B2g (7)
   37   210           1.2973109878          35.3016272235       g       B3g (6)
   38    11           1.3004099718          35.3859548646       g        Ag (1)
   39   142           1.3004099718          35.3859548646       g       B1g (4)
   40   211           1.3056010516          35.5272113310       g       B3g (6)
   41   239           1.3056010516          35.5272113310       g       B2g (7)
   42    12           1.3129072418          35.7260228764       g        Ag (1)
   43   143           1.3129072418          35.7260228764       g       B1g (4)
   44   174           1.4220863799          38.6969383075      Au       B1u (5)
   45    66           1.4240190165          38.7495280236       u       B2u (2)
   46   106           1.4240190165          38.7495280236       u       B3u (3)
   47   175           1.4298216593          38.9074259638       u       B1u (5)
   48   265           1.4298216593          38.9074259638       u        Au (8)
   49   107           1.4395252805          39.1714749248       u       B3u (3)
   50    67           1.4395252805          39.1714749248       u       B2u (2)
   51    13           1.5646377078          42.5759572058       g        Ag (1)
   52   144           1.5646377078          42.5759572058       g       B1g (4)
   53   212           1.5745483660          42.8456399293       g       B3g (6)
   54   240           1.5745483660          42.8456399293       g       B2g (7)
   55    14           1.5782094219          42.9452623271      Ag        Ag (1)
   56   108           1.9997668288          54.4164227283       u       B3u (3)
   57    68           1.9997668288          54.4164227283       u       B2u (2)
   58   176           2.0243488808          55.0853343807      Au       B1u (5)
   59   177           3.0491432484          82.9714072528      Au       B1u (5)
   60   109           3.0502428656          83.0013293593       u       B3u (3)
   61    69           3.0502428656          83.0013293593       u       B2u (2)
   62   266           3.0535456442          83.0912025341       u        Au (8)
   63   178           3.0535456442          83.0912025341       u       B1u (5)
   64    70           3.0590634229          83.2413489277       u       B2u (2)
   65   110           3.0590634229          83.2413489277       u       B3u (3)
   66   179           3.0668161375          83.4523110216               B1u (5)
   67   267           3.0668161375          83.4523110216                Au (8)
   68    71           3.0768321403          83.7248603193       u       B2u (2)
   69   111           3.0768321403          83.7248603193       u       B3u (3)
   70   180           3.7327460853         101.5731864273      Au       B1u (5)
   71   112           3.7358899593         101.6587355912       u       B3u (3)
   72    72           3.7358899593         101.6587355912       u       B2u (2)
   73   181           3.7453174253         101.9152699865       u       B1u (5)
   74   268           3.7453174253         101.9152699865       u        Au (8)
   75   113           3.7610299487         102.3428294905       u       B3u (3)
   76    73           3.7610299487         102.3428294905       u       B2u (2)
   77    15           3.8821549454         105.6388082653      Ag        Ag (1)
   78   213           3.8844373444         105.7009155025       g       B3g (6)
   79   241           3.8844373444         105.7009155025       g       B2g (7)
   80   145           3.8912852132         105.8872554887       g       B1g (4)
   81    16           3.8912852132         105.8872554887       g        Ag (1)
   82   214           3.9026923968         106.1976607388       g       B3g (6)
   83   242           3.9026923968         106.1976607388       g       B2g (7)
   84   146           3.9186112627         106.6308351091       g       B1g (4)
   85    17           3.9186112627         106.6308351091       g        Ag (1)
   86    18           4.0980985994         111.5149339178      Ag        Ag (1)
   87   243           4.2185918505         114.7937220211       g       B2g (7)
   88   215           4.2185918505         114.7937220211       g       B3g (6)
   89    19           4.2186165911         114.7943952475      Ag        Ag (1)
   90    20           4.2203249581         114.8408822778       g        Ag (1)
   91   147           4.2203249581         114.8408822778       g       B1g (4)
   92   182           5.4603941644         148.5848814130      Au       B1u (5)
   93   114           5.4659315217         148.7355605686       u       B3u (3)
   94    74           5.4659315217         148.7355605686       u       B2u (2)
   95    21           6.7318690964         183.1834738062      Ag        Ag (1)
   96   216           6.7331305079         183.2177985574       g       B3g (6)
   97   244           6.7331305079         183.2177985574       g       B2g (7)
   98   148           6.7369174872         183.3208475038       g       B1g (4)
   99    22           6.7369174872         183.3208475038       g        Ag (1)
  100   217           6.7432382977         183.4928455062       g       B3g (6)
  101   245           6.7432382977         183.4928455062       g       B2g (7)
  102    23           6.7521068089         183.7341699688       g        Ag (1)
  103   149           6.7521068089         183.7341699688       g       B1g (4)
  104   246           6.7635426451         184.0453548951    XXXX      XXXX (7)
  105   218           6.7635426451         184.0453548951    XXXX      XXXX (6)
  106   150           6.7775714018         184.4270967791    XXXX      XXXX (4)
  107    24           6.7775714018         184.4270967791    XXXX      XXXX (1)
  108   183           7.8459143648         213.4981871954      Au       B1u (5)
  109    75           7.8480712687         213.5568795360       u       B2u (2)
  110   115           7.8480712687         213.5568795360       u       B3u (3)
  111   184           7.8545479574         213.7331191994       u       B1u (5)
  112   269           7.8545479574         213.7331191994       u        Au (8)
  113   116           7.8653623979         214.0273950903       u       B3u (3)
  114    76           7.8653623979         214.0273950903       u       B2u (2)
  115   185           7.8805446554         214.4405253249               B1u (5)
  116   270           7.8805446554         214.4405253249                Au (8)
  117   117           7.9001370727         214.9736621131       u       B3u (3)
  118    77           7.9001370727         214.9736621131       u       B2u (2)
  119   186           8.7211049256         237.3133334616      Au       B1u (5)
  120   118           8.7262003771         237.4519877480       u       B3u (3)
  121    78           8.7262003771         237.4519877480       u       B2u (2)
  122   271           8.7414928036         237.8681158349       u        Au (8)
  123   187           8.7414928036         237.8681158349       u       B1u (5)
  124   119           8.7670085094         238.5624334995       u       B3u (3)
  125    79           8.7670085094         238.5624334995       u       B2u (2)
  126    25           9.6121974899         261.5611952465      Ag        Ag (1)
  127   219           9.6159278735         261.6627041469       g       B3g (6)
  128   247           9.6159278735         261.6627041469       g       B2g (7)
  129    26           9.6271129372         261.9670652080       g        Ag (1)
  130   151           9.6271129372         261.9670652080       g       B1g (4)
  131   248           9.6457329258         262.4737408649       g       B2g (7)
  132   220           9.6457329258         262.4737408649       g       B3g (6)
  133   152           9.6717510051         263.1817288076       g       B1g (4)
  134    27           9.6717510051         263.1817288076       g        Ag (1)
  135    28          10.5892365018         288.1477788076      Ag        Ag (1)
  136   249          10.5967555552         288.3523826539       g       B2g (7)
  137   221          10.5967555552         288.3523826539       g       B3g (6)
  138   153          10.6195787522         288.9734334287       g       B1g (4)
  139    29          10.6195787522         288.9734334287       g        Ag (1)
  140    30          12.4404195495         338.5210312374      Ag        Ag (1)
  141   188          13.9304197136         379.0659975952      Au       B1u (5)
  142   120          13.9646792737         379.9982476333       u       B3u (3)
  143    80          13.9646792737         379.9982476333       u       B2u (2)
  144    31          16.7180943416         454.9224818609      Ag        Ag (1)
  145   222          16.7202474398         454.9810706420       g       B3g (6)
  146   250          16.7202474398         454.9810706420       g       B2g (7)
  147   154          16.7267101263         455.1569292850       g       B1g (4)
  148    32          16.7267101263         455.1569292850       g        Ag (1)
  149   223          16.7374925988         455.4503352841       g       B3g (6)
  150   251          16.7374925988         455.4503352841       g       B2g (7)
  151    33          16.7526119269         455.8617531244       g        Ag (1)
  152   155          16.7526119269         455.8617531244       g       B1g (4)
  153   224          16.7720921639         456.3918373303    XXXX      XXXX (6)
  154   252          16.7720921639         456.3918373303    XXXX      XXXX (7)
  155   156          16.7959645080         457.0414368481    XXXX      XXXX (4)
  156    34          16.7959645080         457.0414368481    XXXX      XXXX (1)
  157   189          19.5949487172         533.2056704682      Au       B1u (5)
  158    81          19.5981779970         533.2935436401       u       B2u (2)
  159   121          19.5981779970         533.2935436401       u       B3u (3)
  160   272          19.6078668498         533.5571907331       u        Au (8)
  161   190          19.6078668498         533.5571907331       u       B1u (5)
  162   122          19.6240192899         533.9967209791       u       B3u (3)
  163    82          19.6240192899         533.9967209791       u       B2u (2)
  164   273          19.6466448923         534.6123949306                Au (8)
  165   191          19.6466448923         534.6123949306               B1u (5)
  166   123          19.6757620642         535.4047134712       u       B3u (3)
  167    83          19.6757620642         535.4047134712       u       B2u (2)
  168   192          20.0236571127         544.8714191663      Au       B1u (5)
  169   124          20.0302698610         545.0513611970       u       B3u (3)
  170    84          20.0302698610         545.0513611970       u       B2u (2)
  171   274          20.0501286704         545.5917468811       u        Au (8)
  172   193          20.0501286704         545.5917468811       u       B1u (5)
  173    85          20.0832968589         546.4942991898       u       B2u (2)
  174   125          20.0832968589         546.4942991898       u       B3u (3)
  175    35          23.2271311756         632.0423814478      Ag        Ag (1)
  176   253          23.2317645252         632.1684613018       g       B2g (7)
  177   225          23.2317645252         632.1684613018       g       B3g (6)
  178   157          23.2456691931         632.5468265575       g        Ag (4)
  179    36          23.2456691931         632.5468265575       g       B1g (1)
  180   254          23.2688590382         633.1778543328       g       B2g (7)
  181   226          23.2688590382         633.1778543328       g       B3g (6)
  182    37          23.3013572134         634.0621746503       g        Ag (1)
  183   158          23.3013572134         634.0621746503       g       B1g (4)
  184    38          26.1603296701         711.8587714992      Ag        Ag (1)
  185   227          26.1721750094         712.1810995742       g       B3g (6)
  186   255          26.1721750094         712.1810995742       g       B2g (7)
  187   159          26.2078087608         713.1507432601       g       B1g (4)
  188    39          26.2078087608         713.1507432601       g        Ag (1)
  189    40          34.1582957630         929.4944966306      Ag        Ag (1)
  190   194          35.2118009876         958.1618316534      Au       B1u (5)
  191   126          35.2571672548         959.3963105623       u       B3u (3)
  192    86          35.2571672548         959.3963105623       u       B2u (2)
  193   195          58.3953579580        1589.0184986768      Au       B1u (5)
  194   127          58.4013541714        1589.1816639418       u       B3u (3)
  195    87          58.4013541714        1589.1816639418       u       B2u (2)
  196   196          58.4193447637        1589.6712128527       u       B1u (5)
  197   275          58.4193447637        1589.6712128527       u        Au (8)
  198   128          58.4493357100        1590.4873080034       u       B3u (3)
  199    88          58.4493357100        1590.4873080034       u       B2u (2)
  200    41          65.3285540548        1777.6803587645      Ag        Ag (1)
  201   256          65.3399725031        1777.9910705432       g       B2g (7)
  202   228          65.3399725031        1777.9910705432       g       B3g (6)
  203   160          65.3742268836        1778.9231796370       g       B1g (4)
  204    42          65.3742268836        1778.9231796370       g        Ag (1)
  205    43          85.1047287070        2315.8174377087      Ag        Ag (1)
  206   197          86.7915750309        2361.7188604722      Au       B1u (5)
  207   129          86.8320095374        2362.8191393474       u       B3u (3)
  208    89          86.8320095374        2362.8191393474       u       B2u (2)
  209    44         102.4023985735        2786.5109716288      Ag        Ag (1)
  210   229         102.4058070136        2786.6037200021       g       B3g (6)
  211   257         102.4058070136        2786.6037200021       g       B2g (7)
  212   161         102.4160333423        2786.8819925570       g       B1g (4)
  213    45         102.4160333423        2786.8819925570       g        Ag (1)
  214   258         102.4330805854        2787.3458716300       g       B2g (7)
  215   230         102.4330805854        2787.3458716301       g       B3g (6)
  216   162         102.4569537896        2787.9954945532       g       B1g (4)
  217    46         102.4569537896        2787.9954945532       g        Ag (1)
  218    47         161.0809436208        4383.2353828845      Ag        Ag (1)
  219   231         161.0893269842        4383.4635058058       g       B3g (6)
  220   259         161.0893269842        4383.4635058058       g       B2g (7)
  221   163         161.1144618774        4384.1474610324       g        Ag (4)
  222    48         161.1144618774        4384.1474610324       g       B1g (1)
  223   198         175.9872908904        4788.8577197861      Au       B1u (5)
  224   130         175.9912290038        4788.9648813015       u       B3u (3)
  225    90         175.9912290038        4788.9648813015       u       B2u (2)
  226   199         176.0030425232        4789.2863435124       u       B1u (5)
  227   276         176.0030425232        4789.2863435124       u        Au (8)
  228   131         176.0227290202        4789.8220403394       u       B3u (3)
  229    91         176.0227290202        4789.8220403394       u       B2u (2)
  230    49         196.4107604883        5344.6085899430      Ag        Ag (1)
  231   200         206.8245456627        5627.9820953388      Au       B1u (5)
  232    92         206.8532479702        5628.7631248445       u       B2u (2)
  233   132         206.8532479702        5628.7631248445       u       B3u (3)
  234   201         319.9563570469        8706.4552371186      Au       B1u (5)
  235   133         319.9578544051        8706.4959823071       u       B3u (3)
  236    93         319.9578544051        8706.4959823071       u       B2u (2)
  237   202         319.9623465574        8706.6182199856       u       B1u (5)
  238   277         319.9623465574        8706.6182199857       u        Au (8)
  239   134         319.9698337366        8706.8219564945       u       B3u (3)
  240    94         319.9698337366        8706.8219564946       u       B2u (2)
  241   203         319.9803163313        8707.1072024021               B1u (5)
  242   278         319.9803163313        8707.1072024021                Au (8)
  243   135         319.9937948853        8707.4739725072       u       B3u (3)
  244    95         319.9937948853        8707.4739725072       u       B2u (2)
  245    50         373.7605989026       10170.5431133738      Ag        Ag (1)
  246   232         373.7623063570       10170.5895755710       g       B3g (6)
  247   260         373.7623063570       10170.5895755710       g       B2g (7)
  248    51         373.7674287627       10170.7289633196       g        Ag (1)
  249   164         373.7674287627       10170.7289633196       g       B1g (4)
  250   261         373.7759662476       10170.9612800974       g       B2g (7)
  251   233         373.7759662476       10170.9612800975       g       B3g (6)
  252    52         373.7879190254       10171.2865317222       g        Ag (1)
  253   165         373.7879190254       10171.2865317222       g       B1g (4)
  254    53         393.0632584295       10695.7951905005      Ag        Ag (1)
  255   262         393.0683079716       10695.9325955281       g       B2g (7)
  256   234         393.0683079716       10695.9325955281       g       B3g (6)
  257    54         393.0834485261       10696.3445909688       g        Ag (1)
  258   166         393.0834485261       10696.3445909689       g       B1g (4)
  259    55         437.5399498978       11906.0675130690      Ag        Ag (1)
  260   204         488.6360817519       13296.4639686455      Au       B1u (5)
  261    96         488.6531107946       13296.9273524636       u       B2u (2)
  262   136         488.6531107946       13296.9273524636       u       B3u (3)
  263   205         531.0870165708       14451.6126495047      Au       B1u (5)
  264   137         531.0889174158       14451.6643741273       u       B3u (3)
  265    97         531.0889174158       14451.6643741274       u       B2u (2)
  266   206         531.0946203820       14451.8195597284       u       B1u (5)
  267   279         531.0946203820       14451.8195597284       u        Au (8)
  268   138         531.1041267668       14452.0782416156       u       B3u (3)
  269    98         531.1041267669       14452.0782416157       u       B2u (2)
  270    56         981.8669174331       26717.9575500208      Ag        Ag (1)
  271    57         983.4452949521       26760.9073865023      Ag        Ag (1)
  272   235         983.4477032194       26760.9729187872       g       B3g (6)
  273   263         983.4477032194       26760.9729187872       g       B2g (7)
  274    58         983.4550035958       26761.1715721305       g        Ag (1)
  275   167         983.4550035958       26761.1715721306       g       B1g (4)
  276   207        1180.4414692047       32121.4458950793      Au       B1u (5)
  277   139        1180.4496573300       32121.6687052975       u       B2u (3)
  278    99        1180.4496573300       32121.6687052975       u       B3u (2)
  279    59        3155.1574859741       85856.2013620639      Ag        Ag (1)


 
  ORBITAL EIGENVALUES ( BETA)  (1H = 27.2113838 eV)

       MO #        E(hartree)               E(eV)           FULLSYM    COMPSYM
       ----   --------------------   --------------------   -------   ---------
    1     1         -16.2485530587        -442.1456137928      Ag        Ag (1)
    2     2          -1.3119979672         -35.7012802573      Ag        Ag (1)
  +++++++++++++++++++++++++++++++++++++++++++++++++++++++++++++++++++++++++++++
    3   168          -0.3983277566         -10.8390494711      Au       B1u (5)
    4    60          -0.3316985054          -9.0259753423       u       B2u (2)
    5   100          -0.3316985054          -9.0259753423       u       B3u (3)
    6     3          -0.1286932386          -3.5019211113      Ag        Ag (1)
    7   169          -0.0855257179          -2.3272731358      Au       B1u (5)
    8   101          -0.0787730375          -2.1435233575       u       B3u (3)
    9    61          -0.0787730375          -2.1435233575       u       B2u (2)
   10     4           0.0388301113           1.0566210635      Ag        Ag (1)
   11   236           0.0407953049           1.1100966998       g       B2g (7)
   12   208           0.0407953049           1.1100966998       g       B3g (6)
   13   140           0.0465693198           1.2672156361       g       B1g (4)
   14     5           0.0465693198           1.2672156361       g        Ag (1)
   15   170           0.0958561277           2.6083778812      Au       B1u (5)
   16   102           0.1113375068           3.0296476323       u       B3u (3)
   17    62           0.1113375068           3.0296476323       u       B2u (2)
   18     6           0.1840950248           5.0094803789      Ag        Ag (1)
   19   171           0.3585675847           9.7571201724      Au       B1u (5)
   20   103           0.3596175245           9.7856904880       u       B3u (3)
   21    63           0.3596175245           9.7856904880       u       B2u (2)
   22   172           0.3627743526           9.8715921486       u       B1u (5)
   23   264           0.3627743526           9.8715921486       u        Au (8)
   24    64           0.3680982725          10.0164633761       u       B2u (2)
   25   104           0.3680982725          10.0164633761       u       B3u (3)
   26     7           0.5029504994          13.6859790828      Ag        Ag (1)
   27   237           0.5094019183          13.8615311162       g       B2g (7)
   28   209           0.5094019183          13.8615311162       g       B3g (6)
   29     8           0.5282974014          14.3757033597       g        Ag (1)
   30   141           0.5282974014          14.3757033597       g       B1g (4)
   31   173           0.6418425417          17.4654237535      Au       B1u (5)
   32    65           0.6736764632          18.3316688107       u       B2u (2)
   33   105           0.6736764632          18.3316688107       u       B3u (3)
   34     9           1.2010486259          32.6821951459      Ag        Ag (1)
   35    10           1.2994955461          35.3610720768      Ag        Ag (1)
   36   238           1.3006997317          35.3938396345       g       B2g (7)
   37   210           1.3006997317          35.3938396345       g       B3g (6)
   38    11           1.3043256469          35.4925058028       g        Ag (1)
   39   142           1.3043256469          35.4925058028       g       B1g (4)
   40   211           1.3104147361          35.6581983466       g       B3g (6)
   41   239           1.3104147361          35.6581983466       g       B2g (7)
   42    12           1.3190456476          35.8930573935       g        Ag (1)
   43   143           1.3190456476          35.8930573935       g       B1g (4)
   44   174           1.4350278260          39.0490929640      Au       B1u (5)
   45   106           1.4384762818          39.1429302182       u       B3u (3)
   46    66           1.4384762818          39.1429302182       u       B2u (2)
   47   175           1.4488042524          39.4239685911       u       B1u (5)
   48   265           1.4488042524          39.4239685911       u        Au (8)
   49    67           1.4661088135          39.8948496448       u       B2u (2)
   50   107           1.4661088135          39.8948496448       u       B3u (3)
   51    13           1.6262716024          44.2531007665      Ag        Ag (1)
   52   212           1.6391085394          44.6024115868       g       B3g (6)
   53   240           1.6391085394          44.6024115868       g       B2g (7)
   54    14           1.6773182054          45.6421494744       g        Ag (1)
   55   144           1.6773182054          45.6421494744       g       B1g (4)
   56   176           2.0489480651          55.7547122258      Au       B1u (5)
   57    68           2.1010517643          57.1725259821       u       B2u (2)
   58   108           2.1010517643          57.1725259821       u       B3u (3)
   59   177           3.0540248136          83.1042413980      Au       B1u (5)
   60    69           3.0553034344          83.1390344390       u       B2u (2)
   61   109           3.0553034344          83.1390344390       u       B3u (3)
   62   178           3.0591446831          83.2435601316       u       B1u (5)
   63   266           3.0591446831          83.2435601316       u        Au (8)
   64    70           3.0655649252          83.4182638037       u       B2u (2)
   65   110           3.0655649252          83.4182638037       u       B3u (3)
   66   179           3.0745921240          83.6639063741               B1u (5)
   67   267           3.0745921240          83.6639063741                Au (8)
   68    71           3.0862669380          83.9815942202       u       B2u (2)
   69   111           3.0862669380          83.9815942202       u       B3u (3)
   70   180           3.7640743785         102.4256726390      Au       B1u (5)
   71   112           3.7708319910         102.6095566276       u       B3u (3)
   72    72           3.7708319910         102.6095566276       u       B2u (2)
   73   268           3.7911429030         103.1622446486       u        Au (8)
   74   181           3.7911429030         103.1622446486       u       B1u (5)
   75   113           3.8252312762         104.0898364546       u       B3u (3)
   76    73           3.8252312762         104.0898364546       u       B2u (2)
   77    15           3.8980687542         106.0718450248      Ag        Ag (1)
   78   213           3.9012517446         106.1584585991       g       B3g (6)
   79   241           3.9012517446         106.1584585991       g       B2g (7)
   80   145           3.9108216504         106.4188689778       g       B1g (4)
   81    16           3.9108216504         106.4188689778       g        Ag (1)
   82   214           3.9268550760         106.8551606767       g       B3g (6)
   83   242           3.9268550760         106.8551606767       g       B2g (7)
   84   146           3.9495131415         107.4717179935       g       B1g (4)
   85    17           3.9495131415         107.4717179935       g        Ag (1)
   86    18           4.1602469307         113.2060760167      Ag        Ag (1)
   87    19           4.2761845406         116.3608988171      Ag        Ag (1)
   88   243           4.2933717604         116.8285868516       g       B2g (7)
   89   215           4.2933717604         116.8285868516       g       B3g (6)
   90    20           4.3485651894         118.3304764345       g        Ag (1)
   91   147           4.3485651894         118.3304764345       g       B1g (4)
   92   182           5.4878405510         149.3317355746      Au       B1u (5)
   93   114           5.5589773212         151.2674655311       u       B3u (3)
   94    74           5.5589773212         151.2674655312       u       B2u (2)
   95    21           6.7397455718         183.3978036004      Ag        Ag (1)
   96   216           6.7412055734         183.4375322636       g       B3g (6)
   97   244           6.7412055734         183.4375322636       g       B2g (7)
[...]
 Number of                     5 -fold excitations:            81667989524
 Total number of configurations:            83750775540
 Calculation of coupling coefficients...
 Length of intermediate file (Mbytes):  506042.4
 
 ======================================================================
 
 Memory requirements /Mbyte/: 
               Minimal        Optimal
 Real*8:    2675825.3576   2675825.3576
 Integer:     87104.4733
 Total:     2762929.8309   2762929.8309
 

 ************************ 2018-12-20 07:29:58 *************************
 Executing goldstone...

 Generation of MRCC equations in terms of H and T...
 Generation of antisymmetrized Goldstone diagrams...
 Number of diagrams in T^1 equations:    15
 Number of diagrams in T^2 equations:    38
 Number of diagrams in T^3 equations:    54
 Number of diagrams in T^4 equations:    80
 Number of diagrams in T^5 equations:    99
 Translation of diagrams to factorized equations...
 Number of restricted diagrams in T^1 equations:     30
 Number of restricted diagrams in T^2 equations:    129
 Number of restricted diagrams in T^3 equations:    306
 Number of restricted diagrams in T^4 equations:    669
 Number of restricted diagrams in T^5 equations:   1238
 Optimizing intermediate calculation...
 Number of floating-point operations per iteration step:   2.1961E+16
 Probable CPU time per iteration step (hours): 219610.29
 Required memory (Mbytes):  799626.7
 Number of intermediates:                                 709
 Number of intermediates to be stored:                    233
 Length of intermediate file (Mbytes):  577883.9

 ************************ 2018-12-20 07:29:58 *************************
 Executing xmrcc...

 **********************************************************************
 MRCC(                     5 ) calculation 
 
 
 Allocation of****** Mbytes of memory...
 Number of spinorbitals:                   558
 Number of alpha electrons:                        4
 Number of beta electrons:                         2
 Number of active particles:                   296
 Number of active holes:                         0
 Spin multiplicity:                     2
 z-component of spin:  1.0
 Spatial symmetry:                      4
 Convergence criterion:  1.0E-07
 Construction of occupation graphs...
 Number of                     0 -fold excitations:                      1
 Number of                     1 -fold excitations:                    306
 Number of                     2 -fold excitations:                 116087
 Number of                     3 -fold excitations:               22781908
 Number of                     4 -fold excitations:             2059887714
 Number of                     5 -fold excitations:            81667989524
 Total number of configurations:            83750775540
 Calculation of coupling coefficients...
 Length of intermediate file (Mbytes):  506289.2
 
 ======================================================================
 
 Memory requirements /Mbyte/: 
               Minimal        Optimal
 Real*8:    2611069.0731   2611069.0731
 Integer:     87104.4786
 Total:     2698173.5517   2698173.5517
 

 ************************ 2018-12-20 08:33:05 *************************
 Executing goldstone...

 Generation of MRCC equations in terms of H and T...
 Generation of antisymmetrized Goldstone diagrams...
 Number of diagrams in T^1 equations:    15
 Number of diagrams in T^2 equations:    38
 Number of diagrams in T^3 equations:    54
 Number of diagrams in T^4 equations:    80
 Number of diagrams in T^5 equations:    99
 Translation of diagrams to factorized equations...
 Number of restricted diagrams in T^1 equations:     30
 Number of restricted diagrams in T^2 equations:    129
 Number of restricted diagrams in T^3 equations:    306
 Number of restricted diagrams in T^4 equations:    669
 Number of restricted diagrams in T^5 equations:   1238
 Optimizing intermediate calculation...
 Number of floating-point operations per iteration step:   2.1721E+16
 Probable CPU time per iteration step (hours): 217210.85
 Required memory (Mbytes):  803257.9
 Number of intermediates:                                 709
 Number of intermediates to be stored:                    233
 Length of intermediate file (Mbytes):  576390.8

 ************************ 2018-12-20 08:33:06 *************************
 Executing xmrcc...

 **********************************************************************
 MRCC(                     5 ) calculation 
 
 
 Allocation of****** Mbytes of memory...
 Number of spinorbitals:                   558
 Number of alpha electrons:                        4
 Number of beta electrons:                         2
 Number of active particles:                   298
 Number of active holes:                         0
 Spin multiplicity:                     2
 z-component of spin:  1.0
 Spatial symmetry:                      4
 Convergence criterion:  1.0E-07
 Construction of occupation graphs...
 Number of                     0 -fold excitations:                      1
 Number of                     1 -fold excitations:                    306
 Number of                     2 -fold excitations:                 116087
 Number of                     3 -fold excitations:               22781908
 Number of                     4 -fold excitations:             2059887714
 Number of                     5 -fold excitations:            81667989524
 Total number of configurations:            83750775540
 Calculation of coupling coefficients...
 Length of intermediate file (Mbytes):  506535.3
 
 ======================================================================
 
 Memory requirements /Mbyte/: 
               Minimal        Optimal
 Real*8:    2547237.8914   2547237.8914
 Integer:     87104.4786
 Total:     2634342.3700   2634342.3700
 

 ************************ 2018-12-20 09:36:18 *************************
 Executing goldstone...

 Generation of MRCC equations in terms of H and T...
 Generation of antisymmetrized Goldstone diagrams...
 Number of diagrams in T^1 equations:    15
 Number of diagrams in T^2 equations:    38
 Number of diagrams in T^3 equations:    54
 Number of diagrams in T^4 equations:    80
 Number of diagrams in T^5 equations:    99
 Translation of diagrams to factorized equations...
 Number of restricted diagrams in T^1 equations:     30
 Number of restricted diagrams in T^2 equations:    129
 Number of restricted diagrams in T^3 equations:    306
 Number of restricted diagrams in T^4 equations:    669
 Number of restricted diagrams in T^5 equations:   1238
 Optimizing intermediate calculation...
 Number of floating-point operations per iteration step:   2.1829E+16
 Probable CPU time per iteration step (hours): 218285.93
 Required memory (Mbytes):  806696.0
 Number of intermediates:                                 710
 Number of intermediates to be stored:                    232
 Length of intermediate file (Mbytes):  566868.5

 ************************ 2018-12-20 09:36:18 *************************
 Executing xmrcc...

 **********************************************************************
 MRCC(                     5 ) calculation 
 
 
 Allocation of****** Mbytes of memory...
 Number of spinorbitals:                   558
 Number of alpha electrons:                        4
 Number of beta electrons:                         2
 Number of active particles:                   300
 Number of active holes:                         0
 Spin multiplicity:                     2
 z-component of spin:  1.0
 Spatial symmetry:                      4
 Convergence criterion:  1.0E-07
 Construction of occupation graphs...
 Number of                     0 -fold excitations:                      1
 Number of                     1 -fold excitations:                    306
 Number of                     2 -fold excitations:                 116087
 Number of                     3 -fold excitations:               22781908
 Number of                     4 -fold excitations:             2059887714
 Number of                     5 -fold excitations:            81667989524
 Total number of configurations:            83750775540
 Calculation of coupling coefficients...
 Length of intermediate file (Mbytes):  495740.2
 
 ======================================================================
 
 Memory requirements /Mbyte/: 
               Minimal        Optimal
 Real*8:    2484299.4919   2484299.4919
 Integer:     87104.4839
 Total:     2571403.9758   2571403.9758
 

 ************************ 2018-12-20 10:39:29 *************************
 Executing goldstone...

 Generation of MRCC equations in terms of H and T...
 Generation of antisymmetrized Goldstone diagrams...
 Number of diagrams in T^1 equations:    15
 Number of diagrams in T^2 equations:    38
 Number of diagrams in T^3 equations:    54
 Number of diagrams in T^4 equations:    80
 Number of diagrams in T^5 equations:    99
 Translation of diagrams to factorized equations...
 Number of restricted diagrams in T^1 equations:     30
 Number of restricted diagrams in T^2 equations:    129
 Number of restricted diagrams in T^3 equations:    306
 Number of restricted diagrams in T^4 equations:    669
 Number of restricted diagrams in T^5 equations:   1238
 Optimizing intermediate calculation...
 Number of floating-point operations per iteration step:   2.1610E+16
 Probable CPU time per iteration step (hours): 216099.37
 Required memory (Mbytes):  809938.3
 Number of intermediates:                                 714
 Number of intermediates to be stored:                    232
 Length of intermediate file (Mbytes):  565280.0

 ************************ 2018-12-20 10:39:29 *************************
 Executing xmrcc...

 **********************************************************************
 MRCC(                     5 ) calculation 
 
 
 Allocation of****** Mbytes of memory...
 Number of spinorbitals:                   558
 Number of alpha electrons:                        4
 Number of beta electrons:                         2
 Number of active particles:                   302
 Number of active holes:                         0
 Spin multiplicity:                     2
 z-component of spin:  1.0
 Spatial symmetry:                      4
 Convergence criterion:  1.0E-07
 Construction of occupation graphs...
 Number of                     0 -fold excitations:                      1
 Number of                     1 -fold excitations:                    306
 Number of                     2 -fold excitations:                 116087
 Number of                     3 -fold excitations:               22781908
 Number of                     4 -fold excitations:             2059887714
 Number of                     5 -fold excitations:            81667989524
 Total number of configurations:            83750775540
 Calculation of coupling coefficients...
 Length of intermediate file (Mbytes):  495763.2
 
 ======================================================================
 
 Memory requirements /Mbyte/: 
               Minimal        Optimal
 Real*8:    2446537.3631   2446537.3631
 Integer:     87105.4428
 Total:     2533642.8058   2533642.8058
 

 ************************ 2018-12-20 11:42:28 *************************
 Executing goldstone...

 Generation of MRCC equations in terms of H and T...
 Generation of antisymmetrized Goldstone diagrams...
 Number of diagrams in T^1 equations:    15
 Number of diagrams in T^2 equations:    38
 Number of diagrams in T^3 equations:    54
 Number of diagrams in T^4 equations:    80
 Number of diagrams in T^5 equations:    99
 Translation of diagrams to factorized equations...
 Number of restricted diagrams in T^1 equations:     30
 Number of restricted diagrams in T^2 equations:    129
 Number of restricted diagrams in T^3 equations:    306
 Number of restricted diagrams in T^4 equations:    669
 Number of restricted diagrams in T^5 equations:   1238
 Optimizing intermediate calculation...
 Number of floating-point operations per iteration step:   2.1380E+16
 Probable CPU time per iteration step (hours): 213803.90
 Required memory (Mbytes):  812982.0
 Number of intermediates:                                 714
 Number of intermediates to be stored:                    232
 Length of intermediate file (Mbytes):  563692.8

 ************************ 2018-12-20 11:42:28 *************************
 Executing xmrcc...

 **********************************************************************
 MRCC(                     5 ) calculation 
 
 
 Allocation of****** Mbytes of memory...
 Number of spinorbitals:                   558
 Number of alpha electrons:                        4
 Number of beta electrons:                         2
 Number of active particles:                   304
 Number of active holes:                         0
 Spin multiplicity:                     2
 z-component of spin:  1.0
 Spatial symmetry:                      4
 Convergence criterion:  1.0E-07
 Construction of occupation graphs...
 Number of                     0 -fold excitations:                      1
 Number of                     1 -fold excitations:                    306
 Number of                     2 -fold excitations:                 116087
 Number of                     3 -fold excitations:               22781908
 Number of                     4 -fold excitations:             2059887714
 Number of                     5 -fold excitations:            81667989524
 Total number of configurations:            83750775540
 Calculation of coupling coefficients...
 Length of intermediate file (Mbytes):  495782.5
 
 ======================================================================
 
 Memory requirements /Mbyte/: 
               Minimal        Optimal
 Real*8:    2455815.7022   2455815.7022
 Integer:     87105.4428
 Total:     2542921.1450   2542921.1450
 

 ************************ 2018-12-20 12:45:17 *************************
 Executing goldstone...

 Generation of MRCC equations in terms of H and T...
 Generation of antisymmetrized Goldstone diagrams...
 Number of diagrams in T^1 equations:    15
 Number of diagrams in T^2 equations:    38
 Number of diagrams in T^3 equations:    54
 Number of diagrams in T^4 equations:    80
 Number of diagrams in T^5 equations:    99
 Translation of diagrams to factorized equations...
 Number of restricted diagrams in T^1 equations:     60
 Number of restricted diagrams in T^2 equations:    438
 Number of restricted diagrams in T^3 equations:   1426
 Number of restricted diagrams in T^4 equations:   3697
 Number of restricted diagrams in T^5 equations:   6714
 Optimizing intermediate calculation...
 Number of floating-point operations per iteration step:   9.1581E+15
 Probable CPU time per iteration step (hours):  91580.56
 Required memory (Mbytes):  754578.6
 Number of intermediates:                                2670
 Number of intermediates to be stored:                    779
 Length of intermediate file (Mbytes):  434117.5

 ************************ 2018-12-20 12:45:19 *************************
 Executing xmrcc...

 **********************************************************************
 MRCC(                     5 ) calculation 
 
 
 Allocation of****** Mbytes of memory...
 Number of spinorbitals:                   558
 Number of alpha electrons:                        4
 Number of beta electrons:                         2
 Number of active particles:                   302
 Number of active holes:                         4
 Spin multiplicity:                     2
 z-component of spin:  1.0
 Spatial symmetry:                      4
 Convergence criterion:  1.0E-07
 Construction of occupation graphs...
 Number of                     0 -fold excitations:                      1
 Number of                     1 -fold excitations:                    306
 Number of                     2 -fold excitations:                 116087
 Number of                     3 -fold excitations:               22781908
 Number of                     4 -fold excitations:             2059887714
 Number of                     5 -fold excitations:            81667989524
 Total number of configurations:            83750775540
 Calculation of coupling coefficients...
 Length of intermediate file (Mbytes):  752292.9
 
 ======================================================================
 
 Memory requirements /Mbyte/: 
               Minimal        Optimal
 Real*8:    1223758.5444   1223758.5444
 Integer:     87201.2418
 Total:     1310959.7862   1310959.7862
 

 ************************ 2018-12-20 13:48:16 *************************
 Executing goldstone...

 Generation of MRCC equations in terms of H and T...
 Generation of antisymmetrized Goldstone diagrams...
 Number of diagrams in T^1 equations:    15
 Number of diagrams in T^2 equations:    38
 Number of diagrams in T^3 equations:    54
 Number of diagrams in T^4 equations:    80
 Number of diagrams in T^5 equations:    99
 Translation of diagrams to factorized equations...
 Number of restricted diagrams in T^1 equations:     60
 Number of restricted diagrams in T^2 equations:    438
 Number of restricted diagrams in T^3 equations:   1426
 Number of restricted diagrams in T^4 equations:   3697
 Number of restricted diagrams in T^5 equations:   6714
 Optimizing intermediate calculation...
 Number of floating-point operations per iteration step:   1.4183E+16
 Probable CPU time per iteration step (hours): 141829.21
 Required memory (Mbytes):  754578.6
 Number of intermediates:                                2650
 Number of intermediates to be stored:                    783
 Length of intermediate file (Mbytes):  662353.7

 ************************ 2018-12-20 13:48:17 *************************
 Executing xmrcc...

 **********************************************************************
 MRCC(                     5 ) calculation 
 
 
 Allocation of****** Mbytes of memory...
 Number of spinorbitals:                   558
 Number of alpha electrons:                        4
 Number of beta electrons:                         2
 Number of active particles:                   302
 Number of active holes:                         2
 Spin multiplicity:                     2
 z-component of spin:  1.0
 Spatial symmetry:                      4
 Convergence criterion:  1.0E-07
 Construction of occupation graphs...
 Number of                     0 -fold excitations:                      1
 Number of                     1 -fold excitations:                    306
 Number of                     2 -fold excitations:                 116087
 Number of                     3 -fold excitations:               22781908
 Number of                     4 -fold excitations:             2059887714
 Number of                     5 -fold excitations:            81667989524
 Total number of configurations:            83750775540
 Calculation of coupling coefficients...
 Length of intermediate file (Mbytes):  729842.3
 
 ======================================================================
 
 Memory requirements /Mbyte/: 
               Minimal        Optimal
 Real*8:    1834907.2028   1834907.2028
 Integer:     87186.2754
 Total:     1922093.4782   1922093.4782
 
 Unable to optimize memory usage: Insufficient memory!
 
 ************************ 2018-12-20 14:51:26 *************************
                   Error at the termination of mrcc.
 **********************************************************************
--executable dmrcc finished with status   256 in    71086.68 seconds (walltime).
  This computation required                        72359.95 seconds (walltime).
--- SharcNET Job Epilogue ---
Job completed successfully.
               jobid: 1651218
               resid: 3126693
         exit status: 0
      allocated time: 72361.1
           user time: 67262.7
         system time: 4983.84
peak rss=177398419456; peak vsz=177398419456 (bytes)
atime=72361.1; utime=67262.7; stime=4983.84; exit=0
