
 Primary working directories    : .
 Secondary working directories  : .
 Wavefunction directory         : /home/dattani/wfu/
 Main file repository           : /home/dattani/Li/3zeta/./

 SHA1      : c51528690e241e4bfddaa1efad45229768b24895
 NAME      : 2012.1.15
 ARCHNAME  : Linux/x86_64
 FC        : /usr/local/server/IntelStudio_2013_SP1/composer_xe_2013_sp1.2.144/bin/intel64/ifort
 FCVERSION : 14.0.2
 BLASLIB   : -L/usr/local/server/IntelStudio_2013_SP1/composer_xe_2013_sp1.2.144/mkl/lib/intel64 -lmkl_intel_ilp64 -lmkl_sequential -lmkl_core
 id        : fkfmpg

 Nodes     nprocs
 alxmp09      1

 Using customized tuning parameters: mindgm=1; mindgv=20; mindgc=4; mindgr=1; noblas=0; minvec=7
 default implementation of scratch files=df  

  ***,Li2 atom, spin=1
 geometry={Li}                                                                   !  z-matrix geometry input
 basis = aug-cc-pCVTZ
 gthresh,oneint=1e-18,twoint=1e-18                                               !,THROVL=1e-11,THRORTH=2.d-6
 THRESH,ENERGY=1d-16
 
 memory 13880, M
 
 print basis,orbitals=2,civector
 
 wf,charge=0,spin=1
 core
 
 rhf
 {rccsd(t);core}
 casscf
 {fci;core}
 {fciqmc;core}

 Variables initialized (781), CPU time= 0.01 sec
 Commands  initialized (547), CPU time= 0.01 sec, 516 directives.
 Default parameters read. Elapsed time= 0.10 sec

 Checking input...
 Passed
1


                                         ***  PROGRAM SYSTEM MOLPRO  ***
                         Copyright, University College Cardiff Consultants Limited, 2008

                                    Version 2012.1 linked Oct 10 2014 10:48:57


 **********************************************************************************************************************************
 LABEL *                                                                                 
 Linux-3.0.101-68-default/alxmp09(x86_64) 64 bit serial version                          DATE: 31-Jan-18          TIME: 14:08:50  
 **********************************************************************************************************************************

 SHA1:             c51528690e241e4bfddaa1efad45229768b24895
 **********************************************************************************************************************************

 Variable memory set to    8000000 words,  buffer space   230000 words

 SETTING BASIS          =    AUG-CC-PCVTZ

 THRESHOLDS:

 ZERO    =  1.00D-12  ONEINT  =  1.00D-18  TWOINT  =  1.00D-18  PREFAC  =  1.00D-14  LOCALI  =  1.00D-09  EORDER  =  1.00D-04
 ENERGY  =  0.00D+00  ETEST   =  0.00D+00  EDENS   =  0.00D+00  THRDEDEF=  1.00D-06  GRADIENT=  1.00D-02  STEP    =  1.00D-03
 ORBITAL =  1.00D-05  CIVEC   =  1.00D-05  COEFF   =  1.00D-04  PRINTCI =  5.00D-02  PUNCHCI =  9.90D+01  OPTGRAD =  3.00D-04
 OPTENERG=  1.00D-06  OPTSTEP =  3.00D-04  THRGRAD =  1.00D-10  COMPRESS=  1.00D-11  VARMIN  =  1.00D-07  VARMAX  =  1.00D-03
 THRDOUB =  0.00D+00  THRDIV  =  1.00D-05  THRRED  =  1.00D-07  THRPSP  =  1.00D+00  THRDC   =  1.00D-10  THRCS   =  1.00D-10
 THRNRM  =  1.00D-08  THREQ   =  0.00D+00  THRDE   =  1.00D+00  THRREF  =  1.00D-05  SPARFAC =  1.00D+00  THRDLP  =  1.00D-07
 THRDIA  =  1.00D-10  THRDLS  =  1.00D-07  THRGPS  =  0.00D+00  THRKEX  =  0.00D+00  THRDIS  =  2.00D-01  THRVAR  =  1.00D-10
 THRLOC  =  1.00D-06  THRGAP  =  1.00D-06  THRLOCT = -1.00D+00  THRGAPT = -1.00D+00  THRORB  =  1.00D-06  THRMLTP =  0.00D+00
 THRCPQCI=  1.00D-10  KEXTA   =  0.00D+00  THRCOARS=  0.00D+00  SYMTOL  =  1.00D-06  GRADTOL =  1.00D-06  THROVL  =  1.00D-08
 THRORTH =  1.00D-08  GRID    =  1.00D-06  GRIDMAX =  1.00D-03  DTMAX   =  0.00D+00  THROCCDE=  1.00D-01  THROCCDE=  1.00D-01



 THRESHOLDS:

 ZERO    =  1.00D-12  ONEINT  =  1.00D-18  TWOINT  =  1.00D-18  PREFAC  =  1.00D-14  LOCALI  =  1.00D-09  EORDER  =  1.00D-04
 ENERGY  =  1.00D-16  ETEST   =  0.00D+00  EDENS   =  0.00D+00  THRDEDEF=  1.00D-06  GRADIENT=  1.00D-02  STEP    =  1.00D-03
 ORBITAL =  1.00D-05  CIVEC   =  1.00D-05  COEFF   =  1.00D-04  PRINTCI =  5.00D-02  PUNCHCI =  9.90D+01  OPTGRAD =  3.00D-04
 OPTENERG=  1.00D-06  OPTSTEP =  3.00D-04  THRGRAD =  1.00D-10  COMPRESS=  1.00D-11  VARMIN  =  1.00D-07  VARMAX  =  1.00D-03
 THRDOUB =  0.00D+00  THRDIV  =  1.00D-05  THRRED  =  1.00D-07  THRPSP  =  1.00D+00  THRDC   =  1.00D-10  THRCS   =  1.00D-10
 THRNRM  =  1.00D-08  THREQ   =  0.00D+00  THRDE   =  1.00D+00  THRREF  =  1.00D-05  SPARFAC =  1.00D+00  THRDLP  =  1.00D-07
 THRDIA  =  1.00D-10  THRDLS  =  1.00D-07  THRGPS  =  0.00D+00  THRKEX  =  0.00D+00  THRDIS  =  2.00D-01  THRVAR  =  1.00D-10
 THRLOC  =  1.00D-06  THRGAP  =  1.00D-06  THRLOCT = -1.00D+00  THRGAPT = -1.00D+00  THRORB  =  1.00D-06  THRMLTP =  0.00D+00
 THRCPQCI=  1.00D-10  KEXTA   =  0.00D+00  THRCOARS=  0.00D+00  SYMTOL  =  1.00D-06  GRADTOL =  1.00D-06  THROVL  =  1.00D-08
 THRORTH =  1.00D-08  GRID    =  1.00D-06  GRIDMAX =  1.00D-03  DTMAX   =  0.00D+00  THROCCDE=  1.00D-01  THROCCDE=  1.00D-01




 Variable memory set to ********** words,  buffer space   230000 words



 Recomputing integrals since basis changed


 Using spherical harmonics

 Library entry LI     S aug-cc-pCVTZ         selected for orbital group  1
 Library entry LI     P aug-cc-pCVTZ         selected for orbital group  1
 Library entry LI     D aug-cc-pCVTZ         selected for orbital group  1
 Library entry LI     F aug-cc-pCVTZ         selected for orbital group  1

1PROGRAM * SEWARD (Integral evaluation for generally contracted gaussian basis sets)     Author: Roland Lindh, 1990

 Geometry written to block  1 of record 700

 Orientation using atomic masses  
 Molecule type: Atom
 Symmetry elements: X,Y,Z
 Rotational constants:       0.0000000      0.0000000      0.0000000 GHz  (calculated with average atomic masses)

 Point group  D2h 



 ATOMIC COORDINATES

 NR  ATOM    CHARGE       X              Y              Z

   1  LI      3.00    0.000000000    0.000000000    0.000000000


 BASIS DATA

   Nr Sym  Nuc  Type         Exponents   Contraction coefficients

    1.1 Ag    1  1s        5988.000000     0.000133   -0.000021    0.000000    0.000000
    2.1 Ag                  898.900000     0.001025   -0.000161    0.000000    0.000000
    3.1 Ag                  205.900000     0.005272   -0.000820    0.000000    0.000000
    4.1 Ag                   59.240000     0.020929   -0.003326    0.000000    0.000000
                             19.870000     0.066340   -0.010519    0.000000    0.000000
                              7.406000     0.165775   -0.028097    0.000000    0.000000
                              2.930000     0.315038   -0.055936    0.000000    0.000000
                              1.189000     0.393523   -0.099237    0.000000    0.000000
                              0.479800     0.190870   -0.112189    0.000000    0.000000
                              0.075090     0.005414    0.567889    1.000000    0.000000
                              0.028320    -0.001328    0.530382    0.000000    1.000000
    5.1 Ag    1  1s           4.908500     1.000000
    6.1 Ag    1  1s           1.662300     1.000000
    7.1 Ag    1  1s           0.007600     1.000000
    8.1 Ag    1  3d0          0.190000     1.000000
    9.1 Ag    1  3d2+         0.190000     1.000000
   10.1 Ag    1  3d0          0.072500     1.000000
   11.1 Ag    1  3d2+         0.072500     1.000000
   12.1 Ag    1  3d0          4.881500     1.000000
   13.1 Ag    1  3d2+         4.881500     1.000000
   14.1 Ag    1  3d0          0.042800     1.000000
   15.1 Ag    1  3d2+         0.042800     1.000000
    1.2 B3u   1  2px          3.266000     0.008630    0.000000    0.000000
    2.2 B3u                   0.651100     0.047538    0.000000    0.000000
    3.2 B3u                   0.169600     0.209772    0.000000    0.000000
                              0.055780     0.528522    1.000000    0.000000
                              0.020500     0.382744    0.000000    1.000000
    4.2 B3u   1  2px          7.738100     1.000000
    5.2 B3u   1  2px          1.980300     1.000000
    6.2 B3u   1  2px          0.009100     1.000000
    7.2 B3u   1  4f1+         0.127000     1.000000
    8.2 B3u   1  4f3+         0.127000     1.000000
    9.2 B3u   1  4f1+         0.081200     1.000000
   10.2 B3u   1  4f3+         0.081200     1.000000
    1.3 B2u   1  2py          3.266000     0.008630    0.000000    0.000000
    2.3 B2u                   0.651100     0.047538    0.000000    0.000000
    3.3 B2u                   0.169600     0.209772    0.000000    0.000000
                              0.055780     0.528522    1.000000    0.000000
                              0.020500     0.382744    0.000000    1.000000
    4.3 B2u   1  2py          7.738100     1.000000
    5.3 B2u   1  2py          1.980300     1.000000
    6.3 B2u   1  2py          0.009100     1.000000
    7.3 B2u   1  4f1-         0.127000     1.000000
    8.3 B2u   1  4f3-         0.127000     1.000000
    9.3 B2u   1  4f1-         0.081200     1.000000
   10.3 B2u   1  4f3-         0.081200     1.000000
    1.4 B1g   1  3d2-         0.190000     1.000000
    2.4 B1g   1  3d2-         0.072500     1.000000
    3.4 B1g   1  3d2-         4.881500     1.000000
    4.4 B1g   1  3d2-         0.042800     1.000000
    1.5 B1u   1  2pz          3.266000     0.008630    0.000000    0.000000
    2.5 B1u                   0.651100     0.047538    0.000000    0.000000
    3.5 B1u                   0.169600     0.209772    0.000000    0.000000
                              0.055780     0.528522    1.000000    0.000000
                              0.020500     0.382744    0.000000    1.000000
    4.5 B1u   1  2pz          7.738100     1.000000
    5.5 B1u   1  2pz          1.980300     1.000000
    6.5 B1u   1  2pz          0.009100     1.000000
    7.5 B1u   1  4f0          0.127000     1.000000
    8.5 B1u   1  4f2+         0.127000     1.000000
    9.5 B1u   1  4f0          0.081200     1.000000
   10.5 B1u   1  4f2+         0.081200     1.000000
    1.6 B2g   1  3d1+         0.190000     1.000000
    2.6 B2g   1  3d1+         0.072500     1.000000
    3.6 B2g   1  3d1+         4.881500     1.000000
    4.6 B2g   1  3d1+         0.042800     1.000000
    1.7 B3g   1  3d1-         0.190000     1.000000
    2.7 B3g   1  3d1-         0.072500     1.000000
    3.7 B3g   1  3d1-         4.881500     1.000000
    4.7 B3g   1  3d1-         0.042800     1.000000
    1.8 Au    1  4f2-         0.127000     1.000000
    2.8 Au    1  4f2-         0.081200     1.000000

 NUCLEAR CHARGE:                    3
 NUMBER OF PRIMITIVE AOS:          82
 NUMBER OF SYMMETRY AOS:           72
 NUMBER OF CONTRACTIONS:           59   (  15Ag  +  10B3u +  10B2u +   4B1g +  10B1u +   4B2g +   4B3g +   2Au  )
 NUMBER OF CORE ORBITALS:           1   (   1Ag  +   0B3u +   0B2u +   0B1g +   0B1u +   0B2g +   0B3g +   0Au  )
 NUMBER OF VALENCE ORBITALS:        4   (   1Ag  +   1B3u +   1B2u +   0B1g +   1B1u +   0B2g +   0B3g +   0Au  )


 NUCLEAR REPULSION ENERGY    0.00000000

 EXTRA SYMMETRY OF AOS IN SYMMETRY 1:   1 1 1 1 1 1 1 2 3 2   3 2 3 2 3
 EXTRA SYMMETRY OF AOS IN SYMMETRY 2:   1 1 1 1 1 1 2 3 2 3
 EXTRA SYMMETRY OF AOS IN SYMMETRY 3:   1 1 1 1 1 1 2 3 2 3
 EXTRA SYMMETRY OF AOS IN SYMMETRY 5:   1 1 1 1 1 1 2 3 2 3

 Eigenvalues of metric

         1 0.196E-03 0.143E-01 0.559E-01 0.559E-01 0.700E-01 0.202E+00 0.605E+00 0.609E+00
         2 0.130E-01 0.796E-01 0.106E+00 0.106E+00 0.414E+00 0.721E+00 0.158E+01 0.189E+01
         3 0.130E-01 0.796E-01 0.106E+00 0.106E+00 0.414E+00 0.721E+00 0.158E+01 0.189E+01
         4 0.559E-01 0.609E+00 0.100E+01 0.233E+01
         5 0.130E-01 0.796E-01 0.106E+00 0.106E+00 0.414E+00 0.721E+00 0.158E+01 0.189E+01
         6 0.559E-01 0.609E+00 0.100E+01 0.233E+01
         7 0.559E-01 0.609E+00 0.100E+01 0.233E+01
         8 0.106E+00 0.189E+01


 Contracted 2-electron integrals neglected if value below      1.0D-18
 AO integral compression algorithm  1   Integral accuracy      1.0D-18

     3.146 MB (compressed) written to integral file ( 92.6%)


 NUMBER OF SORTED TWO-ELECTRON INTEGRALS:     219021.     BUFFER LENGTH:  32768
 NUMBER OF SEGMENTS:   1  SEGMENT LENGTH:     219021      RECORD LENGTH: 524288

 Memory used in sort:       0.78 MW

 SORT1 READ      449913. AND WROTE      183880. INTEGRALS IN      1 RECORDS. CPU TIME:     0.02 SEC, REAL TIME:     0.01 SEC
 SORT2 READ      183880. AND WROTE      219021. INTEGRALS IN     12 RECORDS. CPU TIME:     0.02 SEC, REAL TIME:     0.04 SEC

 FILE SIZES:   FILE 1:    10.7 MBYTE,  FILE 4:     4.2 MBYTE,   TOTAL:     15.0 MBYTE

 OPERATOR DM      FOR CENTER  0  COORDINATES:    0.000000    0.000000    0.000000


 **********************************************************************************************************************************
 DATASETS  * FILE   NREC   LENGTH (MB)   RECORD NAMES
              1      19        9.07       500      610      700      900      950      970     1000      129      960     1100   
                                          VAR    BASINP    GEOM    SYMINP    ZMAT    AOBASIS   BASIS     P2S    ABASIS      S 
                                         1400     1410     1200     1210     1080     1600     1650     1300     1700   
                                           T        V       H0       H01     AOSYM     SMH    MOLCAS    ERIS     OPER   

 PROGRAMS   *        TOTAL       INT
 CPU TIMES  *         0.30      0.18
 REAL TIME  *         0.62 SEC
 DISK USED  *        15.23 MB      
 **********************************************************************************************************************************

1PROGRAM * RHF-SCF (OPEN SHELL)       Authors: W. Meyer, H.-J. Werner


 NUMBER OF ELECTRONS:       2+    1-
 CONVERGENCE THRESHOLDS:    1.00E-06 (Density)    1.00E-17 (Energy)
 MAX. NUMBER OF ITERATIONS:       60
 INTERPOLATION TYPE:            DIIS
 INTERPOLATION STEPS:              2 (START)      1 (STEP)
 LEVEL SHIFTS:                 -0.30 (CLOSED)  0.00 (OPEN) 



 Orbital guess generated from atomic densities. Full valence occupancy:    2   0   0   0   0   0   0   0


 Molecular orbital dump at record        2100.2

 Initial alpha occupancy:   2   0   0   0   0   0   0   0
 Initial beta  occupancy:   1   0   0   0   0   0   0   0
 Wave function symmetry:    1

 ITERATION    DDIFF          GRAD             ENERGY        2-EL.EN.            DIPOLE MOMENTS         DIIS   ORB.
    1      0.000D+00      0.000D+00        -7.43039752      4.450114    0.00000    0.00000    0.00000    0    start
    2      0.000D+00      0.176D-02        -7.43211760      4.508000    0.00000    0.00000    0.00000    1    diag,B
    3      0.943D-02      0.882D-03        -7.43268151      4.559786    0.00000    0.00000    0.00000    2    diag,B
    4      0.102D-01      0.431D-04        -7.43268216      4.561507    0.00000    0.00000    0.00000    3    diag,B
    5      0.430D-03      0.590D-05        -7.43268217      4.561486    0.00000    0.00000    0.00000    4    diag,B
    6      0.382D-04      0.805D-06        -7.43268217      4.561485    0.00000    0.00000    0.00000    5    diag,B
    7      0.691D-05      0.761D-07        -7.43268217      4.561484    0.00000    0.00000    0.00000    6    fixocc
    8      0.583D-06      0.416D-08        -7.43268217      4.561485    0.00000    0.00000    0.00000    7    diag,B
    9      0.340D-07      0.358D-09        -7.43268217      4.561485    0.00000    0.00000    0.00000    0    orth

 Final alpha occupancy:   2   0   0   0   0   0   0   0
 Final beta  occupancy:   1   0   0   0   0   0   0   0

 !RHF STATE 1.1 Energy                 -7.432682173181
 Nuclear energy                         0.00000000
 One-electron energy                   -9.71342442
 Two-electron energy                    2.28074225
 Virial quotient                       -1.00001515
 !RHF STATE 1.1 Dipole moment           0.00000000     0.00000000     0.00000000
 Dipole moment /Debye                   0.00000000     0.00000000     0.00000000

 ELECTRON ORBITALS
 =================


   Orb  Occ    Energy  Couls-En    Coefficients

                                   1 1s      1 1s      1 1s      1 1s      1 1s      1 1s      1 1s      1 3d0     1 3d2+    1 3d0  
                                   1 3d2+    1 3d0     1 3d2+    1 3d0     1 3d2+ 

   1.1   2    -2.4778   -6.9209  1.000202  0.001187 -0.000240 -0.001383 -0.000017  0.000081  0.000564  0.000000  0.000000 -0.000000
                                -0.000000  0.000000  0.000000  0.000000  0.000000

   2.1   +    -0.1963   -1.0235  0.001039  1.005858 -0.000003 -0.010994 -0.000119  0.000403  0.007430 -0.000000 -0.000000  0.000000
                                 0.000000 -0.000000  0.000000  0.000000 -0.000000

   3.1   0     0.0200   -0.2414  0.032258 -0.049064  0.095962 -1.020084 -0.001896  0.011113  1.501045  0.000000 -0.000000 -0.000000
                                 0.000000 -0.000000  0.000000  0.000000 -0.000000

   4.1   0     0.1119   -0.2162  0.000000  0.000000 -0.000000 -0.000000 -0.000000  0.000000  0.000000  0.043180  0.125112 -0.257694
                                -0.746661  0.000024  0.000070  0.523370  1.516450

                                   1 2px     1 2px     1 2px     1 2px     1 2px     1 2px     1 4f1+    1 4f3+    1 4f1+    1 4f3+ 


   1.2   0     0.0127   -0.3248  0.221718  0.127104 -0.248335  0.000166  0.001389  1.008369  0.000000 -0.000000 -0.000000 -0.000000

   2.2   0     0.0412   -0.3518  0.611818 -0.290746  1.349865  0.000543 -0.003676 -1.448432 -0.000000  0.000000  0.000000 -0.000000

                                   1 2py     1 2py     1 2py     1 2py     1 2py     1 2py     1 4f1-    1 4f3-    1 4f1-    1 4f3- 


   1.3   0     0.0127   -0.3248  0.221718  0.127104 -0.248335  0.000166  0.001389  1.008369  0.000000  0.000000 -0.000000  0.000000

   2.3   0     0.0412   -0.3518  0.611818 -0.290746  1.349865  0.000543 -0.003676 -1.448432 -0.000000  0.000000  0.000000 -0.000000

                                   1 3d2-    1 3d2-    1 3d2-    1 3d2- 

   1.4   0     0.1119   -0.2162  0.132353 -0.789879  0.000074  1.604224

   2.4   0     0.3157    0.0050 -0.203089  2.355117  0.000670 -1.721594

                                   1 2pz     1 2pz     1 2pz     1 2pz     1 2pz     1 2pz     1 4f0     1 4f2+    1 4f0     1 4f2+ 


   1.5   0     0.0127   -0.3248  0.221718  0.127104 -0.248335  0.000166  0.001389  1.008369 -0.000000 -0.000000  0.000000  0.000000

   2.5   0     0.0412   -0.3518  0.611818 -0.290746  1.349865  0.000543 -0.003676 -1.448432 -0.000000  0.000000  0.000000 -0.000000

                                   1 3d1+    1 3d1+    1 3d1+    1 3d1+ 

   1.6   0     0.1119   -0.2162  0.132353 -0.789879  0.000074  1.604224

   2.6   0     0.3157    0.0050 -0.203089  2.355117  0.000670 -1.721594

                                   1 3d1-    1 3d1-    1 3d1-    1 3d1- 

   1.7   0     0.1119   -0.2162  0.132353 -0.789879  0.000074  1.604224

   2.7   0     0.3157    0.0050 -0.203089  2.355117  0.000670 -1.721594

                                   1 4f2-    1 4f2- 

   1.8   0     0.2951    0.0660 -0.707420  1.581339

   2.8   0     0.7502    0.7287  2.120916 -1.580536

 HOMO      2.1    -0.196313 =      -5.3419eV
 LUMO      1.2     0.012675 =       0.3449eV
 LUMO-HOMO         0.208988 =       5.6869eV


 **********************************************************************************************************************************
 DATASETS  * FILE   NREC   LENGTH (MB)   RECORD NAMES
              1      19        9.07       500      610      700      900      950      970     1000      129      960     1100   
                                          VAR    BASINP    GEOM    SYMINP    ZMAT    AOBASIS   BASIS     P2S    ABASIS      S 
                                         1400     1410     1200     1210     1080     1600     1650     1300     1700   
                                           T        V       H0       H01     AOSYM     SMH    MOLCAS    ERIS     OPER   

              2       4        0.30       700     1000      520     2100   
                                         GEOM     BASIS   MCVARS     RHF  

 PROGRAMS   *        TOTAL       RHF       INT
 CPU TIMES  *         0.33      0.03      0.18
 REAL TIME  *         0.66 SEC
 DISK USED  *        15.23 MB      
 **********************************************************************************************************************************


1PROGRAM * CCSD (Restricted open-shell coupled cluster)     Authors: C. Hampel, H.-J. Werner, 1991, M. Deegan, P.J. Knowles, 1992


 Convergence thresholds:  THRVAR = 1.00D-08  THRDEN = 1.00D-16

 CCSD(T)     terms to be evaluated (factor= 1.000)


 Number of closed-shell orbitals:   1 (   1   0   0   0   0   0   0   0 )
 Number of active  orbitals:        1 (   1   0   0   0   0   0   0   0 )
 Number of external orbitals:      57 (  13  10  10   4  10   4   4   2 )

 Memory could be reduced to 0.53 Mwords without degradation in triples

 Number of N-1 electron functions:               3
 Number of N-2 electron functions:               3
 Number of singly external CSFs:                42
 Number of doubly external CSFs:              1429
 Total number of CSFs:                        1471

 Molecular orbitals read from record     2100.2  Type=RHF/CANONICAL (state 1.1)

 Integral transformation finished. Total CPU:   0.01 sec, npass=  1  Memory used:   0.09 MW

 Starting RMP2 calculation

 Wavefunction is spin-projected

 ITER.      SQ.NORM     CORR.ENERGY   TOTAL ENERGY   ENERGY CHANGE        DEN1      VAR(S)    VAR(P)  DIIS     TIME
   1      1.00268480    -0.03751790    -7.47020007    -0.03751790    -0.00000937  0.36D-08  0.12D-05  1  1     0.02
   2      1.00268726    -0.03752745    -7.47020962    -0.00000955    -0.00000000  0.33D-11  0.51D-09  2  2     0.02
   3      1.00268730    -0.03752750    -7.47020967    -0.00000005    -0.00000000  0.86D-13  0.14D-12  3  3     0.02
   4      1.00268730    -0.03752750    -7.47020967     0.00000000    -0.00000000  0.84D-14  0.21D-16  4  4     0.02
   5      1.00268730    -0.03752750    -7.47020967     0.00000000    -0.00000000  0.31D-15  0.96D-18  5  5     0.02
   6      1.00268730    -0.03752750    -7.47020967    -0.00000000    -0.00000000  0.73D-17  0.16D-20  6  6     0.02
   7      1.00268730    -0.03752750    -7.47020967    -0.00000000    -0.00000000  0.18D-19  0.83D-21  6  1     0.02
   8      1.00268730    -0.03752750    -7.47020967     0.00000000    -0.00000000  0.20D-24  0.46D-24  6  2     0.02
   9      1.00268730    -0.03752750    -7.47020967     0.00000000    -0.00000000  0.13D-27  0.29D-27  6  3     0.02
  10      1.00268730    -0.03752750    -7.47020967     0.00000000    -0.00000000  0.40D-31  0.22D-30  6  4     0.02

 Norm of t1 vector:      0.00181842      S-energy:    -0.00001566      T1 diagnostic:  0.00000622
 Norm of t2 vector:      0.05180725      P-energy:    -0.03751184
                                         Alpha-Beta:  -0.03707169
                                         Alpha-Alpha: -0.00044016
                                         Beta-Beta:    0.00000000

 Spin contamination <S**2-Sz**2-Sz>     0.00000000
  Reference energy                     -7.432682173181
  RHF-RMP2 correlation energy          -0.037527501337
 !RHF-RMP2 energy                      -7.470209674519
 (NB above energy spin projected)

 Starting RCCSD calculation

 ITER.      SQ.NORM     CORR.ENERGY   TOTAL ENERGY   ENERGY CHANGE        DEN1      VAR(S)    VAR(P)  DIIS     TIME
   1      1.00337629    -0.04112709    -7.47380927    -0.04112709    -0.00062960  0.58D-05  0.58D-04  1  1     0.02
   2      1.00356643    -0.04186027    -7.47454244    -0.00073317    -0.00000408  0.26D-05  0.29D-06  2  2     0.03
   3      1.00358795    -0.04187553    -7.47455770    -0.00001526    -0.00000053  0.90D-06  0.16D-07  3  3     0.03
   4      1.00360207    -0.04188029    -7.47456247    -0.00000477    -0.00000010  0.21D-06  0.25D-09  4  4     0.03
   5      1.00361114    -0.04188118    -7.47456335    -0.00000089    -0.00000001  0.13D-07  0.79D-10  5  5     0.04
   6      1.00361337    -0.04188138    -7.47456355    -0.00000020    -0.00000000  0.16D-08  0.60D-11  6  6     0.04
   7      1.00361374    -0.04188141    -7.47456358    -0.00000003    -0.00000000  0.26D-09  0.53D-12  6  1     0.04
   8      1.00361384    -0.04188141    -7.47456359    -0.00000001    -0.00000000  0.16D-10  0.11D-12  6  2     0.05
   9      1.00361387    -0.04188141    -7.47456358     0.00000000    -0.00000000  0.43D-13  0.33D-14  6  3     0.05
  10      1.00361387    -0.04188141    -7.47456359    -0.00000000    -0.00000000  0.24D-15  0.13D-15  6  4     0.05
  11      1.00361387    -0.04188141    -7.47456359    -0.00000000    -0.00000000  0.25D-16  0.39D-17  6  5     0.05
  12      1.00361387    -0.04188141    -7.47456359    -0.00000000    -0.00000000  0.83D-18  0.11D-18  6  1     0.05
  13      1.00361387    -0.04188141    -7.47456359     0.00000000    -0.00000000  0.15D-18  0.31D-20  6  6     0.06
  14      1.00361387    -0.04188141    -7.47456359     0.00000000    -0.00000000  0.31D-19  0.14D-21  6  2     0.06
  15      1.00361387    -0.04188141    -7.47456359     0.00000000    -0.00000000  0.47D-20  0.27D-22  6  3     0.06
  16      1.00361387    -0.04188141    -7.47456359     0.00000000    -0.00000000  0.58D-21  0.14D-23  6  4     0.06
  17      1.00361387    -0.04188141    -7.47456359     0.00000000    -0.00000000  0.55D-22  0.23D-24  6  5     0.06
  18      1.00361387    -0.04188141    -7.47456359    -0.00000000    -0.00000000  0.30D-22  0.15D-24  6  1     0.07
  19      1.00361387    -0.04188141    -7.47456359    -0.00000000    -0.00000000  0.95D-24  0.15D-25  6  6     0.07
  20      1.00361387    -0.04188141    -7.47456359    -0.00000000    -0.00000000  0.20D-24  0.25D-26  6  2     0.07
  21      1.00361387    -0.04188141    -7.47456359     0.00000000    -0.00000000  0.33D-25  0.66D-27  6  3     0.07

 Norm of t1 vector:      0.00764202      S-energy:    -0.00002117      T1 diagnostic:  0.00294697
                                                                       D1 diagnostic:  0.00502417
 Norm of t2 vector:      0.05962772      P-energy:    -0.04186025
                                         Alpha-Beta:  -0.04134965
                                         Alpha-Alpha: -0.00051059
                                         Beta-Beta:    0.00000000

 Spin contamination <S**2-Sz**2-Sz>     0.00000000

 Memory could be reduced to 0.54 Mwords without degradation in triples
 

  Correlated core orbitals:             1.1
  Orbital energies:                    -2.4850
 
  RCCSD core-core energy               -0.039860309120
  RCCSD core-valence energy            -0.002021102851
  RCCSD valence correlation energy     -0.000000000000
 

 RESULTS
 =======

  Reference energy                     -7.432682173181
  RCCSD singles energy                 -0.000021165702
  RCCSD pair energy                    -0.041860246269
  RCCSD correlation energy             -0.041881411971
  Triples (T) contribution             -0.000022368687
  Total correlation energy             -0.041903780659
 
  RHF-RCCSD energy                     -7.474563585153
  RHF-RCCSD[T] energy                  -7.474585947355
  RHF-RCCSD-T energy                   -7.474586012592
 !RHF-RCCSD(T) energy                  -7.474585953840

 Program statistics:

 Available memory in ccsd:             13879999848
 Min. memory needed in ccsd:                 20622
 Max. memory used in ccsd:                   21212
 Max. memory used in cckext:                 48515 (21 integral passes)
 Max. memory used in cckint:                 89887 ( 1 integral passes)



 **********************************************************************************************************************************
 DATASETS  * FILE   NREC   LENGTH (MB)   RECORD NAMES
              1      19        9.07       500      610      700      900      950      970     1000      129      960     1100   
                                          VAR    BASINP    GEOM    SYMINP    ZMAT    AOBASIS   BASIS     P2S    ABASIS      S 
                                         1400     1410     1200     1210     1080     1600     1650     1300     1700   
                                           T        V       H0       H01     AOSYM     SMH    MOLCAS    ERIS     OPER   

              2       4        0.30       700     1000      520     2100   
                                         GEOM     BASIS   MCVARS     RHF  

 PROGRAMS   *        TOTAL  RCCSD(T)       RHF       INT
 CPU TIMES  *         0.44      0.10      0.03      0.18
 REAL TIME  *         0.85 SEC
 DISK USED  *        15.23 MB      
 **********************************************************************************************************************************

1PROGRAM * MULTI (Direct Multiconfiguration SCF)       Authors: P.J. Knowles, H.-J. Werner (1984)     S.T. Elbert (1988)


 Number of closed-shell orbitals:   1 (   1   0   0   0   0   0   0   0 )
 Number of active  orbitals:        4 (   1   1   1   0   1   0   0   0 )
 Number of external orbitals:      54 (  13   9   9   4   9   4   4   2 )

 State symmetry 1

 Number of electrons:     1    Spin symmetry=Doublet   Space symmetry=1
 Number of states:        1
 Number of CSFs:          1   (1 determinants, 4 intermediate states)

 Molecular orbitals read from record     2100.2  Type=RHF/CANONICAL (state 1.1)

 EXTRA SYMMETRY OF MOS IN SYMMETRY 1:   1 1 1 3 2 1 3 2 2 3   1 1 3 2 1
 EXTRA SYMMETRY OF MOS IN SYMMETRY 2:   1 1 1 2 3 1 2 3 1 1
 EXTRA SYMMETRY OF MOS IN SYMMETRY 3:   1 1 1 2 3 1 3 2 1 1
 EXTRA SYMMETRY OF MOS IN SYMMETRY 5:   1 1 1 3 2 1 2 3 1 1

 Wavefunction dump at record             2140.2

 Convergence thresholds  0.10E-01 (gradient)  0.10E-15 (energy)  0.10E-02 (step length)

 Number of orbital rotations:       54   (     1 Core/Active     13 Core/Virtual   0 Active/Active     40 Active/Virtual)
 Total number of variables:         55


 ITER. MIC  NCI  NEG     ENERGY(VAR)     ENERGY(PROJ)   ENERGY CHANGE     GRAD(0)  GRAD(ORB)   GRAD(CI)     STEP       TIME

   1   18    4    0      -7.43268217      -7.43268217   -0.00000000    0.00000000 0.00000000 0.00000000  0.10D-08      0.01
   2   18    4    0      -7.43268217      -7.43268217   -0.00000000    0.00000000 0.00000000 0.00000000  0.22D-09      0.02
   3   17    4    0      -7.43268217      -7.43268217    0.00000000    0.00000000 0.00000000 0.00000000  0.22D-09      0.02
   4   15    4    0      -7.43268217      -7.43268217    0.00000000    0.00000000 0.00000000 0.00000000  0.22D-09      0.03
   5   17    4    0      -7.43268217      -7.43268217   -0.00000000    0.00000000 0.00000000 0.00000000  0.22D-09      0.04
   6   19    4    0      -7.43268217      -7.43268217    0.00000000    0.00000000 0.00000000 0.00000000  0.22D-09      0.04
   7   12    4    0      -7.43268217      -7.43268217    0.00000000    0.00000000 0.00000000 0.00000000  0.22D-09      0.05
   8   12    4    0      -7.43268217      -7.43268217    0.00000000    0.00000000 0.00000000 0.00000000  0.22D-09      0.05
   9   12    4    0      -7.43268217      -7.43268217   -0.00000000    0.00000000 0.00000000 0.00000000  0.22D-09      0.06

 ** WVFN ****  CONVERGENCE REACHED, FINAL GRADIENT:  0.48D-09


 First order charge density matrix for state 1.1 saved on record  2140.2 (density set 1)

 Results for state 1.1
 =====================

 !MCSCF STATE 1.1 Energy               -7.432682173181
 Nuclear energy                         0.00000000
 Kinetic energy                         7.43256960
 One electron energy                   -9.71342442
 Two electron energy                    2.28074225
 Virial ratio                           2.00001515

 !MCSCF STATE 1.1 Dipole moment         0.00000000     0.00000000     0.00000000
 Dipole moment /Debye                   0.00000000     0.00000000     0.00000000


 NATURAL ORBITALS
 ================

   Orb     Occ        Energy       Coefficients

                                   1 1s      1 1s      1 1s      1 1s      1 1s      1 1s      1 1s      1 3d0     1 3d2+    1 3d0  
                                   1 3d2+    1 3d0     1 3d2+    1 3d0     1 3d2+ 

   1.1  2.00000    -2.477814     1.000202  0.001187 -0.000240 -0.001383 -0.000017  0.000081  0.000564  0.000000  0.000000  0.000000
                                 0.000000  0.000000  0.000000  0.000000  0.000000

   2.1  1.00000    -0.079353     0.001039  1.005858 -0.000003 -0.010994 -0.000119  0.000403  0.007430  0.000000  0.000000  0.000000
                                 0.000000  0.000000  0.000000  0.000000  0.000000

   3.1  0.00000     0.021812     0.036386  0.007195  0.132291 -1.129964 -0.002059  0.012173  1.525828  0.000000 -0.000000 -0.000000
                                 0.000000  0.000000 -0.000000  0.000000 -0.000000

   4.1  0.00000     0.115135    -0.000000 -0.000000  0.000000  0.000000  0.000000 -0.000000 -0.000000 -0.133780  0.003800  0.831137
                                -0.023607 -0.000063  0.000002 -1.634341  0.046420

                                   1 2px     1 2px     1 2px     1 2px     1 2px     1 2px     1 4f1+    1 4f3+    1 4f1+    1 4f3+ 


   1.2  0.00000     0.018554     0.221718  0.127104 -0.248335  0.000166  0.001389  1.008369  0.000000  0.000000  0.000000  0.000000

   2.2  0.00000     0.050911     0.548630 -0.408047  1.586291  0.000477 -0.003926 -1.543127  0.000000 -0.000000 -0.000000  0.000000

   3.2  0.00000     0.149942    -0.362003 -1.424788  2.271786  0.000037 -0.014377 -0.912112  0.000000 -0.000000 -0.000000  0.000000

                                   1 2py     1 2py     1 2py     1 2py     1 2py     1 2py     1 4f1-    1 4f3-    1 4f1-    1 4f3- 


   1.3  0.00000     0.018554     0.221718  0.127104 -0.248335  0.000166  0.001389  1.008369  0.000000  0.000000  0.000000  0.000000

   2.3  0.00000     0.050911     0.548630 -0.408047  1.586291  0.000477 -0.003926 -1.543127  0.000000 -0.000000 -0.000000  0.000000

   3.3  0.00000     0.149942    -0.362003 -1.424788  2.271786  0.000037 -0.014377 -0.912112  0.000000 -0.000000 -0.000000  0.000000

                                   1 3d2-    1 3d2-    1 3d2-    1 3d2- 

   1.4  0.00000     0.115135     0.133834 -0.831473  0.000063  1.635000

   2.4  0.00000     0.323516    -0.214187  2.357050  0.000669 -1.700281

                                   1 2pz     1 2pz     1 2pz     1 2pz     1 2pz     1 2pz     1 4f0     1 4f2+    1 4f0     1 4f2+ 


   1.5  0.00000     0.018554     0.221718  0.127104 -0.248335  0.000166  0.001389  1.008369  0.000000  0.000000  0.000000  0.000000

   2.5  0.00000     0.050911     0.548630 -0.408047  1.586291  0.000477 -0.003926 -1.543127  0.000000  0.000000 -0.000000 -0.000000

   3.5  0.00000     0.149942    -0.362003 -1.424788  2.271786  0.000037 -0.014377 -0.912112  0.000000  0.000000 -0.000000 -0.000000

                                   1 3d1+    1 3d1+    1 3d1+    1 3d1+ 

   1.6  0.00000     0.115135     0.133834 -0.831473  0.000063  1.635000

   2.6  0.00000     0.323516    -0.214187  2.357050  0.000669 -1.700281

                                   1 3d1-    1 3d1-    1 3d1-    1 3d1- 

   1.7  0.00000     0.115135     0.133834 -0.831473  0.000063  1.635000

   2.7  0.00000     0.323516    -0.214187  2.357050  0.000669 -1.700281

                                   1 4f2-    1 4f2- 

   1.8  0.00000     0.298214    -0.717686  1.588977

   2.8  0.00000     0.755894     2.117464 -1.572857
 

 EXTRA SYMMETRY OF MOS IN SYMMETRY 1:   1 1 1 2 3 1 3 2 2 3   1 1 2 3 1
 EXTRA SYMMETRY OF MOS IN SYMMETRY 3:   1 1 1 3 2 1 2 3 1 1
 EXTRA SYMMETRY OF MOS IN SYMMETRY 5:   1 1 1 2 3 1 2 3 1 1

 Natural orbital dump at molpro section  2140.2    (Orbital set 2)


 CI vector
 =========

 a 0 0 0          1.0000000

 TOTAL ENERGIES                        -7.43268217



 **********************************************************************************************************************************
 DATASETS  * FILE   NREC   LENGTH (MB)   RECORD NAMES
              1      20        9.18       500      610      700      900      950      970     1000      129      960     1100   
                                          VAR    BASINP    GEOM    SYMINP    ZMAT    AOBASIS   BASIS     P2S    ABASIS      S 
                                         1400     1410     1200     1210     1080     1600     1650     1300     1700     1380   
                                           T        V       H0       H01     AOSYM     SMH    MOLCAS    ERIS     OPER     JKOP   

              2       5        0.36       700     1000      520     2100     2140   
                                         GEOM     BASIS   MCVARS     RHF     MCSCF   

 PROGRAMS   *        TOTAL    CASSCF  RCCSD(T)       RHF       INT
 CPU TIMES  *         0.50      0.06      0.10      0.03      0.18
 REAL TIME  *         1.00 SEC
 DISK USED  *        15.23 MB      
 **********************************************************************************************************************************

1PROGRAM * FCI (Full CI)     Author: P.J. Knowles, 1984

 ***  Initialisation ***
 
 Molecular orbitals read from record     2140.2  Type=MCSCF/NATURAL (state 1.1)
 
 Frozen orbitals:              0 (  0  0  0  0  0  0  0  0)
 Active orbitals:             59 ( 15 10 10  4 10  4  4  2)
 Active electrons:             3
 Spin quantum number:          0.5
 Orbital pairs:                   318     238     238     196     238     196     196     150
 Strings:                         259     238     238     196     238     196     196     150
                                   15      10      10       4      10       4       4       2
 Determinants:                  13677   12976   12976   12280   12976   12280   12280   11504

 Load integrals                0.5 sec
 Transform integrals           0.7 sec
 Storage for integrals:         415825
 Remaining memory:           *********

 Core energy:               0.00000000
 Run Hamiltonian processor DAVIDSON
 Symmetry:                   1
 Trial vector:                  0.00
 Result vector:                 0.00
 Maximum iterations:           90
 Convergence threshold:         0.0000100
 RHS vector:                    0.00
 Hamiltonian shift:             0.0000000
 Output threshold:              0.0500000
 Options:                        0
 Number of roots:             1

 Hamiltonian diagonaliser entered at time      1.09

 Initial configuration generated:
       1      1.0000000     -7.4326822

 It  Tr    CPU  Convergence   Energy       Pop     dE(next)

  1   1    1.2  1.00000000    -7.43268217
                                           0.01 -0.04203339 -0.04186553
  2   1    1.3  0.05784918    -7.47422459
                                           0.04 -0.00034123 -0.00033555
  3   1    1.4  0.00886203    -7.47457548
                                           0.09 -0.00001285 -0.00001247
  4   1    1.5  0.00161230    -7.47458887
                                           0.12 -0.00000077 -0.00000074
  5   1    1.6  0.00098899    -7.47458966
                                           0.13 -0.00000009 -0.00000008
  6   1    1.7  0.00023971    -7.47458975
                                           0.15 -0.00000002 -0.00000001
  7   1    1.8  0.00016725    -7.47458977
                                           0.20 -0.00000000 -0.00000000
  8   1    1.9  0.00005669    -7.47458977
                                           0.20 -0.00000000 -0.00000000
  9   1    2.0  0.00001024    -7.47458977
                                           0.20 -0.00000000 -0.00000000
 10   1    2.2  0.00000843    -7.47458977


RESULTS FOR STATE 1.1
=====================

 Correlation energy                    -0.041907600478
 !FCI STATE 1.1 Energy                 -7.474589773659
 CI Vector (threshold= 0.500E-01)
       0.998189602608  1  2  1
 /EOF
 !FCI STATE 1.1 Dipole moment           0.00000000     0.00000000     0.00000000
 Dipole moment /Debye                   0.00000000     0.00000000     0.00000000


 **********************************************************************************************************************************
 DATASETS  * FILE   NREC   LENGTH (MB)   RECORD NAMES
              1      20        9.18       500      610      700      900      950      970     1000      129      960     1100   
                                          VAR    BASINP    GEOM    SYMINP    ZMAT    AOBASIS   BASIS     P2S    ABASIS      S 
                                         1400     1410     1200     1210     1080     1600     1650     1300     1700     1380   
                                           T        V       H0       H01     AOSYM     SMH    MOLCAS    ERIS     OPER     JKOP   

              2       5        0.36       700     1000      520     2100     2140   
                                         GEOM     BASIS   MCVARS     RHF     MCSCF   

 PROGRAMS   *        TOTAL       FCI    CASSCF  RCCSD(T)       RHF       INT
 CPU TIMES  *         2.18      1.68      0.06      0.10      0.03      0.18
 REAL TIME  *         2.96 SEC
 DISK USED  *        15.23 MB      
 **********************************************************************************************************************************


 PROGRAM * FCIQMC (Monte-Carlo Full Configuration Interaction)    Authors: A. Alavi, G. Booth, 2011

 ***  Initialisation ***
 
 Molecular orbitals read from record     2140.2  Type=MCSCF/NATURAL (state 1.1)
 
 Frozen orbitals:              0 (  0  0  0  0  0  0  0  0)
 Active orbitals:             59 ( 15 10 10  4 10  4  4  2)
 Active electrons:             3
 Spin quantum number:          0.5

 Transformed integrals will be written to file FCIDUMP_00036917 (relative to TMPDIR)
 File format: FCIDUMP.

 Load integrals                2.2 sec
 Transform integrals           2.3 sec
 Storage for integrals:         415825
 Remaining memory:           *********

 Core energy:               0.00000000
 FCIDUMPED...
 
 Entering NECI for FCIQMC calculation...
 Calling with input filename: 
 FCIQMC_input_00036917                                           
 Using external MPI configuration
 Number of processors:                      1
 NECI Processor                      1 /                     1
 Working directory: 
     /home/dattani/Li/3zeta
 Running on: alxmp09
 Started running on 31/01/2018 at 14:08:54
 ================================================================

Molpro unique filename suffix: 00036917    
 Reading from file: FCIQMC_input_00036917
 Using the default set of defaults.

****************************************************************

 Allocating each processor as a separate node.
 Processor      Node
         0         0
 I am the node root for node                      0
======== SYSTEM ==========
  NUMBER OF ELECTRONS :     3
  Restricting the spin state of the system, TSPN :  T
  GLOBAL MS :                      1
  Open shell system - SYMIGNOREENERGIES set.  
  *** GENERIC SYSTEM ***  
  High-spin restricted calculation. Seriously Cave Arthropodia.  
  NUMBER OF SPIN ORBITALS IN BASIS :   118
*** CREATING BASIS FNs FROM FCIDUMP ***
 Reading in ROHF FCIDUMP, and storing as spatial orbitals.
  Maximum number of symmetries:   8
  Generating abelian symmetry table with  3 generators
  Number of symmetry classes:   8
*** READING PRIMITIVE INTEGRALS FROM FCIDUMP ***
Memory required for integral storage:      11.95781708     Mb/Shared Memory
Allocated   12538680 bytes of shared memory named: umat
 ECORE=  0.000000000000000E+000
 Setting normal GetUMatEl routine
 N_alpha:  1 ; N_beta:  2 ; LMS:  1 ; NEl:  3
 Fermi det (D0):(    1,    2,    3)
 Symmetry:  ( 0, 0, 0) 0
NECI called from MOLPRO, so assuming orbitals ordered by occupation number.
Calculating orbital energies...
Reordering basis by orbital energies...
 
Ordering Basis (Closed):    0   0   0   0   0   0   0   0
Ordering Basis (Open  ):    0   0   0   0   0   0   0   0
      1      1      0      0      0     -1 ( 0, 0, 0) 0   0       -2.484955059       -2.484955059 #
      2      2      0      0      0      1 ( 0, 0, 0) 0   0       -2.470672242       -2.470672242 #
      3      3      0      0      0     -1 ( 0, 0, 0) 0   0       -0.196312621       -0.196312621 #
      4     12      0      0      0      1 ( 0, 0, 0) 0   0        0.023472960        0.023472960
      5      5      0      0      0     -1 ( 0, 0, 1) 1   0        0.012675361        0.012675361
      6      6      0      0      0      1 ( 0, 0, 1) 1   0        0.024432847        0.024432847
      7      7      0      0      0     -1 ( 0, 0, 2) 2   0        0.012675361        0.012675361
      8      8      0      0      0      1 ( 0, 0, 2) 2   0        0.024432847        0.024432847
      9      9      0      0      0     -1 ( 0, 0, 4) 4   0        0.012675361        0.012675361
     10     10      0      0      0      1 ( 0, 0, 4) 4   0        0.024432847        0.024432847
     11     11      0      0      0     -1 ( 0, 0, 0) 0   0        0.020150480        0.020150480
     12      4      0      0      0      1 ( 0, 0, 0) 0   0        0.037605905        0.037605905
     13     37      0      0      0     -1 ( 0, 0, 1) 1   0        0.042150307        0.042150307
     14     38      0      0      0      1 ( 0, 0, 1) 1   0        0.059671112        0.059671112
     15     55      0      0      0     -1 ( 0, 0, 2) 2   0        0.042150307        0.042150307
     16     56      0      0      0      1 ( 0, 0, 2) 2   0        0.059671112        0.059671112
     17     81      0      0      0     -1 ( 0, 0, 4) 4   0        0.042150307        0.042150307
     18     82      0      0      0      1 ( 0, 0, 4) 4   0        0.059671112        0.059671112
     19     13      0      0      0     -1 ( 0, 0, 0) 0   0        0.111931897        0.111931897
     20     14      0      0      0      1 ( 0, 0, 0) 0   0        0.118338418        0.118338418
     21     15      0      0      0     -1 ( 0, 0, 0) 0   0        0.111931897        0.111931897
     22     16      0      0      0      1 ( 0, 0, 0) 0   0        0.118338418        0.118338418
     23     73      0      0      0     -1 ( 0, 0, 3) 3   0        0.111931897        0.111931897
     24     74      0      0      0      1 ( 0, 0, 3) 3   0        0.118338418        0.118338418
     25     99      0      0      0     -1 ( 0, 0, 5) 5   0        0.111931897        0.111931897
     26    100      0      0      0      1 ( 0, 0, 5) 5   0        0.118338418        0.118338418
     27    107      0      0      0     -1 ( 0, 0, 6) 6   0        0.111931897        0.111931897
     28    108      0      0      0      1 ( 0, 0, 6) 6   0        0.118338418        0.118338418
     29     39      0      0      0     -1 ( 0, 0, 1) 1   0        0.136939120        0.136939120
     30     40      0      0      0      1 ( 0, 0, 1) 1   0        0.162945512        0.162945512
     31     57      0      0      0     -1 ( 0, 0, 2) 2   0        0.136939120        0.136939120
     32     58      0      0      0      1 ( 0, 0, 2) 2   0        0.162945512        0.162945512
     33     83      0      0      0     -1 ( 0, 0, 4) 4   0        0.136939120        0.136939120
     34     84      0      0      0      1 ( 0, 0, 4) 4   0        0.162945512        0.162945512
     35     17      0      0      0     -1 ( 0, 0, 0) 0   0        0.160716920        0.160716920
     36     18      0      0      0      1 ( 0, 0, 0) 0   0        0.187089197        0.187089197
     37     41      0      0      0     -1 ( 0, 0, 1) 1   0        0.295101983        0.295101983
     38     42      0      0      0      1 ( 0, 0, 1) 1   0        0.301326568        0.301326568
     39     43      0      0      0     -1 ( 0, 0, 1) 1   0        0.295101983        0.295101983
     40     44      0      0      0      1 ( 0, 0, 1) 1   0        0.301326568        0.301326568
     41     59      0      0      0     -1 ( 0, 0, 2) 2   0        0.295101983        0.295101983
     42     60      0      0      0      1 ( 0, 0, 2) 2   0        0.301326568        0.301326568
     43     61      0      0      0     -1 ( 0, 0, 2) 2   0        0.295101983        0.295101983
     44     62      0      0      0      1 ( 0, 0, 2) 2   0        0.301326568        0.301326568
     45     85      0      0      0     -1 ( 0, 0, 4) 4   0        0.295101983        0.295101983
     46     86      0      0      0      1 ( 0, 0, 4) 4   0        0.301326568        0.301326568
     47     87      0      0      0     -1 ( 0, 0, 4) 4   0        0.295101983        0.295101983
     48     88      0      0      0      1 ( 0, 0, 4) 4   0        0.301326568        0.301326568
     49    115      0      0      0     -1 ( 0, 0, 7) 7   0        0.295101983        0.295101983
     50    116      0      0      0      1 ( 0, 0, 7) 7   0        0.301326568        0.301326568
     51     19      0      0      0     -1 ( 0, 0, 0) 0   0        0.315616361        0.315616361
     52     20      0      0      0      1 ( 0, 0, 0) 0   0        0.331414704        0.331414704
     53     21      0      0      0     -1 ( 0, 0, 0) 0   0        0.315616361        0.315616361
     54     22      0      0      0      1 ( 0, 0, 0) 0   0        0.331414704        0.331414704
     55     75      0      0      0     -1 ( 0, 0, 3) 3   0        0.315616361        0.315616361
     56     76      0      0      0      1 ( 0, 0, 3) 3   0        0.331414704        0.331414704
     57    101      0      0      0     -1 ( 0, 0, 5) 5   0        0.315616361        0.315616361
     58    102      0      0      0      1 ( 0, 0, 5) 5   0        0.331414704        0.331414704
     59    109      0      0      0     -1 ( 0, 0, 6) 6   0        0.315616361        0.315616361
     60    110      0      0      0      1 ( 0, 0, 6) 6   0        0.331414704        0.331414704
     61     45      0      0      0     -1 ( 0, 0, 1) 1   0        0.461430775        0.461430775
     62     46      0      0      0      1 ( 0, 0, 1) 1   0        0.476120186        0.476120186
     63     63      0      0      0     -1 ( 0, 0, 2) 2   0        0.461430775        0.461430775
     64     64      0      0      0      1 ( 0, 0, 2) 2   0        0.476120186        0.476120186
     65     89      0      0      0     -1 ( 0, 0, 4) 4   0        0.461430775        0.461430775
     66     90      0      0      0      1 ( 0, 0, 4) 4   0        0.476120186        0.476120186
     67     47      0      0      0     -1 ( 0, 0, 1) 1   0        0.750228838        0.750228838
     68     48      0      0      0      1 ( 0, 0, 1) 1   0        0.761559521        0.761559521
     69     49      0      0      0     -1 ( 0, 0, 1) 1   0        0.750228838        0.750228838
     70     50      0      0      0      1 ( 0, 0, 1) 1   0        0.761559521        0.761559521
     71     65      0      0      0     -1 ( 0, 0, 2) 2   0        0.750228838        0.750228838
     72     66      0      0      0      1 ( 0, 0, 2) 2   0        0.761559521        0.761559521
     73     67      0      0      0     -1 ( 0, 0, 2) 2   0        0.750228838        0.750228838
     74     68      0      0      0      1 ( 0, 0, 2) 2   0        0.761559521        0.761559521
     75     91      0      0      0     -1 ( 0, 0, 4) 4   0        0.750228838        0.750228838
     76     92      0      0      0      1 ( 0, 0, 4) 4   0        0.761559521        0.761559521
     77     93      0      0      0     -1 ( 0, 0, 4) 4   0        0.750228838        0.750228838
     78     94      0      0      0      1 ( 0, 0, 4) 4   0        0.761559521        0.761559521
     79    117      0      0      0     -1 ( 0, 0, 7) 7   0        0.750228838        0.750228838
     80    118      0      0      0      1 ( 0, 0, 7) 7   0        0.761559521        0.761559521
     81     23      0      0      0     -1 ( 0, 0, 0) 0   0        0.806640743        0.806640743
     82     24      0      0      0      1 ( 0, 0, 0) 0   0        0.821055701        0.821055701
     83     25      0      0      0     -1 ( 0, 0, 0) 0   0        0.806640743        0.806640743
     84     26      0      0      0      1 ( 0, 0, 0) 0   0        0.821055701        0.821055701
     85     77      0      0      0     -1 ( 0, 0, 3) 3   0        0.806640743        0.806640743
     86     78      0      0      0      1 ( 0, 0, 3) 3   0        0.821055701        0.821055701
     87    103      0      0      0     -1 ( 0, 0, 5) 5   0        0.806640743        0.806640743
     88    104      0      0      0      1 ( 0, 0, 5) 5   0        0.821055701        0.821055701
     89    111      0      0      0     -1 ( 0, 0, 6) 6   0        0.806640743        0.806640743
     90    112      0      0      0      1 ( 0, 0, 6) 6   0        0.821055701        0.821055701
     91     27      0      0      0     -1 ( 0, 0, 0) 0   0        1.528601589        1.528601589
     92     28      0      0      0      1 ( 0, 0, 0) 0   0        1.549101517        1.549101517
     93     51      0      0      0     -1 ( 0, 0, 1) 1   0        3.605087315        3.605087315
     94     52      0      0      0      1 ( 0, 0, 1) 1   0        3.609405733        3.609405733
     95     69      0      0      0     -1 ( 0, 0, 2) 2   0        3.605087315        3.605087315
     96     70      0      0      0      1 ( 0, 0, 2) 2   0        3.609405733        3.609405733
     97     95      0      0      0     -1 ( 0, 0, 4) 4   0        3.605087315        3.605087315
     98     96      0      0      0      1 ( 0, 0, 4) 4   0        3.609405733        3.609405733
     99     29      0      0      0     -1 ( 0, 0, 0) 0   0        8.316381743        8.316381743
    100     30      0      0      0      1 ( 0, 0, 0) 0   0        8.324763613        8.324763613
    101     31      0      0      0     -1 ( 0, 0, 0) 0   0       14.762137823       14.762137823
    102     32      0      0      0      1 ( 0, 0, 0) 0   0       14.763562371       14.763562371
    103     33      0      0      0     -1 ( 0, 0, 0) 0   0       14.762137823       14.762137823
    104     34      0      0      0      1 ( 0, 0, 0) 0   0       14.763562371       14.763562371
    105     79      0      0      0     -1 ( 0, 0, 3) 3   0       14.762137823       14.762137823
    106     80      0      0      0      1 ( 0, 0, 3) 3   0       14.763562371       14.763562371
    107    105      0      0      0     -1 ( 0, 0, 5) 5   0       14.762137823       14.762137823
    108    106      0      0      0      1 ( 0, 0, 5) 5   0       14.763562371       14.763562371
    109    113      0      0      0     -1 ( 0, 0, 6) 6   0       14.762137823       14.762137823
    110    114      0      0      0      1 ( 0, 0, 6) 6   0       14.763562371       14.763562371
    111     53      0      0      0     -1 ( 0, 0, 1) 1   0       19.316821920       19.316821920
    112     54      0      0      0      1 ( 0, 0, 1) 1   0       19.322474807       19.322474807
    113     71      0      0      0     -1 ( 0, 0, 2) 2   0       19.316821920       19.316821920
    114     72      0      0      0      1 ( 0, 0, 2) 2   0       19.322474807       19.322474807
    115     97      0      0      0     -1 ( 0, 0, 4) 4   0       19.316821920       19.316821920
    116     98      0      0      0      1 ( 0, 0, 4) 4   0       19.322474807       19.322474807
    117     35      0      0      0     -1 ( 0, 0, 0) 0   0       40.120069494       40.120069494
    118     36      0      0      0      1 ( 0, 0, 0) 0   0       40.126089921       40.126089921
 Fock operator energy:  -5.15193992183372     
 Setting normal GetUMatEl routine
Setting integer length of determinants as bit-strings to:      3
Setting integer bit-length of determinants as bit-strings to:     64
 SYMMETRY MULTIPLICATION TABLE
 No Symmetry table found.
                    36  Symmetry PAIRS
                     8  DISTINCT ORBITAL PAIR PRODUCT SYMS
 Symmetry and spin of orbitals correctly set up for excitation generators.
 Simply transferring this into a spin orbital representation.
 Not storing the H matrix.
 <D0|H|D0>=  -7.43268217318132     
 <D0|T|D0>=  -9.71342442452893     
 FDET                     1                     2                     3
 FDet has     1 alpha electrons, and     2 beta electrons.
                          0  alpha-alpha occupied electron pairs
                          1  beta-beta occupied electron pairs
                          2  alpha-beta occupied electron pairs
                       1653 alpha-alpha (vacant) hole pairs
                       1596 beta-beta (vacant) hole pairs
                       3306 alpha-beta (vacant) hole pairs
 
 Performing FCIQMC....
 
Symmetry of reference determinant is:          0
Symmetry of reference determinant from spin orbital symmetry info is:          0
*********** INITIATOR METHOD IN USE ***********
Starting with only the reference determinant in the fixed initiator space.
Value for seed is:            7

WARNING.  Error in SetupParameters
No iteration number specified. Only running for 100 iterations initially. Change with ITERATIONS option.

Reference Energy set to:        -7.4326821732
 No brillouin theorem assumed. Single excitations also used to calculate project
 ed energy.
 Calculating approximate pDoubles for use with excitation generator by looking a excitations from reference.
   1300 double excitations, and      40 single excitations found from reference. This will be used to calculate pDoubles.
 pDoubles set to:       0.970149
 pSingles set to:       0.029851
From analysis of reference determinant and connections, an upper bound for the timestep is:       0.0046855981
 Using initial time-step:   4.685598062807319E-003
Will dynamically update timestep to limit spawning probability to   3.00000
Initial Diagonal Shift:         0.0000000000
 Connectivity of HF determinant is:                   1340
Low memory requested for walkers, so increasing memory to 20Mb to avoid memory errors
Memory allocated for a maximum particle number per node of:         655360
Spawning vectors allowing for a total of         3000 particles to be spawned in any one iteration per core.
Reference processor is:        0
Initial reference is: (    1,    2,    3)
Initial number of particles set to          1 and shift will be held at     0.000 until particle number gets to           10000
 Initial memory (without excitgens + temp arrays) consists of :      20.137329 Mb/Processor
 Only one array of memory to store main particle list allocated...
 Initial memory allocation sucessful...
 
        Step    Shift           WalkerCng       GrowRate        TotWalkers      Annihil         NoDied          NoBorn          Proj.E          Av.Shift        Proj.E.Cyc      NoatHF          NoatDoubs       AccRat        UniqueDets   IterTime
           0    0.000000        0.000000        0.000000        1.000000        0.000000        0.000000        0.000000        0.000000        0.000000        0.000000        1.000000        0.000000        0.000000               1   0.0000    
          10    0.000000        0.000000        1.000000        1.000000        0.000000        0.000000        0.000000        0.000000        0.000000        0.000000        1.000000        0.000000        0.000000               1   0.0000    
          20    0.000000        0.000000        1.000000        1.000000        0.000000        0.000000        0.000000        0.000000        0.000000        0.000000        1.000000        0.000000        0.000000               1   0.0000    
          30    0.000000        0.000000        1.000000        1.000000        0.000000        0.000000        0.000000        0.000000        0.000000        0.000000        1.000000        0.000000        0.000000               1   0.0000    
          40    0.000000        0.000000        1.000000        1.000000        0.000000        0.000000        0.000000        0.000000        0.000000        0.000000        1.000000        0.000000        0.000000               1   0.0000    
          50    0.000000        0.000000        1.000000        1.000000        0.000000        0.000000        0.000000        0.000000        0.000000        0.000000        1.000000        0.000000        0.000000               1   0.0000    
          60    0.000000        0.000000        1.000000        1.000000        0.000000        0.000000        0.000000        0.000000        0.000000        0.000000        1.000000        0.000000        0.000000               1   0.0000    
          70    0.000000        0.000000        1.000000        1.000000        0.000000        0.000000        0.000000        0.000000        0.000000        0.000000        1.000000        0.000000        0.000000               1   0.0000    
          80    0.000000        0.000000        1.000000        1.000000        0.000000        0.000000        0.000000        0.000000        0.000000        0.000000        1.000000        0.000000        0.000000               1   0.0000    
          90    0.000000        0.000000        1.000000        1.000000        0.000000        0.000000        0.000000        0.000000        0.000000        0.000000        1.000000        0.000000        0.000000               1   0.0000    
         100    0.000000        0.000000        1.000000        1.000000        0.000000        0.000000        0.000000        0.000000        0.000000        0.000000        1.000000        0.000000        0.000000               1   0.0000    
 - - - - - - - - - - - - - - - - - - - - - - - -
 Total loop-time:   0.000000000000000E+000
 - - - - - - - - - - - - - - - - - - - - - - - -
 
Current reference: 
(    1,    2,    3)
1110000000000000000000000000000000000000000000000000000000000000000000000000000000000000000000000000000000000000000000
 
Most occupied          1 determinants as excitations from reference: 
 
 Excitation   ExcitLevel   Seniority    Walkers    Weight    Init?   Proc
1110000000000000000000000000000000000000000000000000000000000000000000000000000000000000000000000000000000000000000000    0    1    1.000000      1.00000  Y      0
 

 Load balancing information based on the last iteration:
 Mean number of determinants/process       1.0000000000
 Min number of determinants/process                  1
 Max number of determinants/process                  1


Calculating approximate errorbar for energy estimates...

Calculation has not entered variable shift phase. Error analysis therefore not performed.
Direct reblocking of instantaneous energy possible, but this would contain finite sampling bias.


RESULTS FOR STATE 1.1
=====================

 Current reference energy                              -7.432682173181
 Projected correlation energy                           0.000000000000
 No automatic errorbar obtained for projected energy
 No reliable averaged shift correlation energy could be obtained automatically

 Total projected energy          -7.43268217
 !FCIQMC STATE 1.1 ENERGY              -7.432682173181


 
 ================================================================
 Memory usage
 Maximum memory defined is (MB) :    8192.0
 Maximum memory used is    (MB) :      32.2
 
 Large memory allocations:
 
 Name              Allocated in       Deallocated in         Size
 - - - - - - - - - - - - - - - - - - - - - - - - - - - - - - - - 
 WalkVecDets       InitFCIMCPar       DeallocFciMCMemPar   15.0MB
 UMat              IntInit            IntCleanup           12.0MB
 WalkVecH          InitFCIMCPar       DeallocFciMCMemPar    5.0MB
 TMAT2D            SetupTMAT          not deallocated     108.8KB
 SpawnVec          InitFCIMCPar       DeallocFciMCMemPar   70.3KB
 SpawnVec2         InitFCIMCPar       DeallocFciMCMemPar   70.3KB
 G1                SysInit            not deallocated       6.5KB
 SymPairProds      GenSymStatePairs   EndSym                3.0KB
 Arr               SysInit            not deallocated       1.8KB
 SymReps           GENMOLPSYMREPS     EndSym                 944B
 ================================================================

 ================================================================
 Timing report.

 Timing of most expensive procedures.

 Procedure                    Calls       CPU    system     total
 - - - - - - - - - - - - - - - - - - - - - - - - - - - - - - - - 
 NECICUBE                         1      0.19      0.00      0.19
 SysInit                          1      0.00      0.00      0.00
 SyncTime                       104      0.00      0.00      0.00
 WalkerTime                     100      0.00      0.00      0.00
 AnnihilTime                    100      0.00      0.00      0.00
 CommsTime                      100      0.00      0.00      0.00
 Compression interface          100      0.00      0.00      0.00
 Compress Sort interface        100      0.00      0.00      0.00
 AnnMainTime                    100      0.00      0.00      0.00
 SortTime                       100      0.00      0.00      0.00
 - - - - - - - - - - - - - - - - - - - - - - - - - - - - - - - - 
 Total                                   0.19      0.00      0.19

 Global CPU time          0.20
 Global system time       0.00
 Global total time        0.20
 ================================================================
 Calculation ended 31/01/2018 at 14:08:54
 ================================================================
 
 CPU-time for FCIQMC:            0.2 sec
 Elapsed-time for FCIQMC         0.2 sec


 **********************************************************************************************************************************
 DATASETS  * FILE   NREC   LENGTH (MB)   RECORD NAMES
              1      20        9.18       500      610      700      900      950      970     1000      129      960     1100   
                                          VAR    BASINP    GEOM    SYMINP    ZMAT    AOBASIS   BASIS     P2S    ABASIS      S 
                                         1400     1410     1200     1210     1080     1600     1650     1300     1700     1380   
                                           T        V       H0       H01     AOSYM     SMH    MOLCAS    ERIS     OPER     JKOP   

              2       5        0.36       700     1000      520     2100     2140   
                                         GEOM     BASIS   MCVARS     RHF     MCSCF   

 PROGRAMS   *        TOTAL    FCIQMC       FCI    CASSCF  RCCSD(T)       RHF       INT
 CPU TIMES  *         2.98      0.80      1.68      0.06      0.10      0.03      0.18
 REAL TIME  *         4.24 SEC
 DISK USED  *        15.23 MB      
 **********************************************************************************************************************************

        FCIQMC          FCI             CASSCF          RCCSD(T)        RHF-SCF 
     -7.43268217     -7.47458977     -7.43268217     -7.47458595     -7.43268217
 **********************************************************************************************************************************
 Variable memory released
