 --invoking executable--
/home/nike/cfour_v2.00beta/bin/xjoda


   *************************************************************************
         <<<     CCCCCC     CCCCCC   |||     CCCCCC     CCCCCC   >>>
       <<<      CCC        CCC       |||    CCC        CCC         >>>
      <<<      CCC        CCC        |||   CCC        CCC            >>>
    <<<        CCC        CCC        |||   CCC        CCC              >>>
      <<<      CCC        CCC        |||   CCC        CCC            >>>
       <<<      CCC        CCC       |||    CCC        CCC         >>>
         <<<     CCCCCC     CCCCCC   |||     CCCCCC     CCCCCC   >>>
   *************************************************************************

     ****************************************************************
     * CFOUR Coupled-Cluster techniques for Computational Chemistry *
     ****************************************************************
 

   Department of Chemistry                Institut fuer Physikalische Chemie
   University of Texas at Austin          Universitaet Mainz
   Austin, TX  78712, USA                 D-55099 Mainz, Germany
 
                       Version 2.00beta
 
                     wob149                                            
                     Fri Mar  9 17:11:38 EST 2018                      
                     integer*8 version is running
 
********************************************************************************
*                          Input from ZMAT file                                *
********************************************************************************
Li2                                                                             
Li                                                                              
Li 1 R                                                                          
                                                                                
R=3.065                                                                         
                                                                                
*ACES2(CALC=CCSD                                                                
INPUT_MRCC=OFF                                                                  
CC_PROG=MRCC                                                                    
SAVE_INTS=ON                                                                    
#SCF_EXPSTART=2                                                                 
#SCF_DAMPING=900                                                                
#SCF_EXTRAPOLATION=ON                                                           
XFORM_TOL=18                                                                    
SCF_CONV=9                                                                      
CC_CONV=10                                                                      
CC_MAXCYC=999                                                                   
SCF_MAXCYC=9999                                                                 
T3_EXTRAPOL=ON                                                                  
REFERENCE=ROHF                                                                  
MULT=3                                                                          
ABCDTYPE=STANDARD                                                               
OCCUPATION=3-0-0-0-1-0-0-0/1-0-0-0-1-0-0-0                                      
MEM=512                                                                         
MEM_UNIT=GB                                                                     
BASIS=SPECIAL)                                                                  
                                                                                
LI:aug-cc-pCVTZ                                                                 
LI:aug-cc-pCVTZ                                                                 
                                                                                
********************************************************************************
  @GTFLGS-W, Keyword #SCF_EXPSTART not known and is ignored.
  @GTFLGS-W, Keyword #SCF_DAMPING not known and is ignored.
  @GTFLGS-W, Keyword #SCF_EXTRAPOLATION not known and is ignored.
    -------------------------------------------------------------------
                    CFOUR Control Parameters 
    -------------------------------------------------------------------
        External           Internal           Value            Units
          Name               Name
    -------------------------------------------------------------------
       ABCDTYPE             IABCDT         STANDARD     [  0]   ***   
       ANHARMONIC           IANHAR         OFF          [  0]   ***   
       ANH_ALGORIT          IANALG         STANDARD     [  0]   ***   
       ANH_DERIVAT          IANDER         SECOND       [  1]   ***   
       ANH_STEPSIZ          ICUBST             50000          x 10-6  
       ANH_SYMMETR          IANHSM         ABELIAN      [  0]   ***   
       AO_LADDERS           IAOLAD         SINGLEPASS   [  1]   ***   
       BASIS                IBASIS         SPECIAL      [  0]   ***   
       BREIT                IBREIT         OFF          [  0]   ***   
       BRUCK_CONV           IBRTOL          10D-  4             ***   
       BRUECKNER            IBRKNR             OFF      [  0]   ***   
       BUFFERSIZE           IBUFFS            600               ***   
       CACHE_RECS           ICHREC             10               ***   
       CALCLEVEL            ICLLVL           CCSD       [ 10]   ***   
       CCORBOPT             ICCORB             OFF      [  0] x 0.01  
       CC_CONV              ICCCNV          10D- 10             ***   
       CC_EXPORDER          ICCEOR              5               ***   
       CC_EXTRAPOL          ICCEXT             DIIS     [  1]   ***   
       CC_MAXCYC            ICCCYC            999              cycles 
       CC_PROGRAM           ICCPRO         MRCC         [  2]   ***   
       CHARGE               ICHRGE              0               ***   
       CHOLESKY             ICHOLE         OFF          [  0]   ***   
       CIS_CONV             ICISTL              5               ***   
       COMM_SIZE            IPSIZE            ***               ***   
       CONSTANT             ICONST         OLD          [  1]   ***   
       CONTINUUM            ICONTU         NONE         [  0]   ***   
       CONTRACTION          ICNTYP          GENERAL     [  1]   ***   
       COORDINATES          ICOORD         INTERNAL     [  0]   ***   
       CPHF_CONVER          ICPHFT          10D- 16             ***   
       CPHF_MAXCYC          ICPHFC             64              cycles 
       CUBIC                ICUBIC         OFF          [  0]   ***   
       CURVILINEAR          ICURVY            OFF       [  0]   ***   
       DBOC                 IDBOC          OFF          [  0]   ***   
       DCT                  IDCT           OFF          [  0]   ***   
       DERIV_LEV            IDRLVL            ZERO      [  0]   ***   
       DIAG_MRCC            IEOMST          10D-  0             ***   
       DIFF_TYPE            IDIFTY         RELAXED      [  0]   ***   
       DIRECT               IDIRCT         OFF          [  0]   ***   
       DROPMO               IDRPMO      NONE         
       ECP                  IECP           OFF          [  0]   ***   
       EIGENVECTOR          IVEC                1               ***   
       EL_ANHARM            IELANH         OFF          [  0]   ***   
       EOMFOLLOW            IEOMSR         ENERGY       [  0]   ***   
       EOM_MRCC             IMRCCE         NEW          [  1]   ***   
       EOM_NONIT            EOMNON         OFF          [  0]   ***   
       EOM_NSING            IEOMSI          10D-  0             ***   
       EOM_NSTATES          IMRCCD         DAVIDSON     [  0]   ***   
       EOM_NTRIP            IEOMTR          10D-  0             ***   
       EOM_ORDER            IEXORD         ENERGY       [  0]   ***   
       ESTATE_CONV          IEXTOL          10D-  5             ***   
       ESTATE_DIAG          IEXDIG         ITERATIVE    [  0]   ***   
       ESTATE_LOCK          IESLOC         ON           [  1]   ***   
       ESTATE_MAXC          IEXMXC             20               ***   
       ESTATE_PROP          IEXPRP         OFF          [  0]   ***   
       EVAL_HESS            IRECAL              0            # of cyc.
       EXCITATION           IEXCIT              0               ***   
       EXCITE               IEXCIT         NONE         [  0]   ***   
       FCGRADNEW            IFCGNW         OFF          [  0]   ***   
       FC_FIELD             IFINFC              0             x 10-6  
       FD_CALTYPE           IFDCAL         GRADONLY     [  0]   ***   
       FD_PROJECT           IFDPRJ         OFF          [  1]   ***   
       FD_STEPSIZE          IDISFD              0            10-4 bohr
       FD_USEGROUP          IFDGRP         FULL         [  0]   ***   
       FILE_RECSIZ          IFLREC              4096           words  
       FINITE_PERT          IFIPER              0             x 10-6  
       FIXGEOM              IFIXGM         OFF          [  0]   ***   
       FOCK                 IFOCK          AO           [  1]   ***   
       FREQ_ALGORI          IVIALG         STANDARD     [  0]   ***   
       FROZEN_CORE          IFROCO         OFF          [  0]   ***   
       FROZEN_VIRT          IFROVI         OFF          [  0]   ***   
       GAMMA_ABCD           IGABCD         STORE        [  0]   ***   
       GAMMA_ABCI           IGABCI         STORE        [  0]   ***   
       GENBAS_1             IGNBS1              0               ***   
       GENBAS_2             IGNBS2              0               ***   
       GENBAS_3             IGNBS3              0               ***   
       GENBAS_4             IGNBS4              0               ***   
       GEO_CONV             ICONTL              5              H/bohr 
       GEO_MAXCYC           IOPTCY             50               ***   
       GEO_MAXSTEP          IMXSTP            300            millibohr
       GEO_METHOD           INR            SINGLE_POINT [  5]   ***   
       GIAO                 IGIAO          OFF          [  1]   ***   
       GIMIC                IGIMIC         OFF          [  0]   ***   
       GRID                 IGRID          OFF          [  0]   ***   
       GRID_ALGO            IGALGO         SERIAL       [  0]   ***   
       GUESS                IGUESS            MOREAD    [  0]   ***   
       HBAR                 IHBAR              OFF      [  0]   ***   
       HESS_TYPE            IHESTP         SCF          [  0]   ***   
       HF2_FILE             IHF2Fl         USE          [  1]   ***   
       HFSTABILITY          ISTABL         OFF          [  0]   ***   
       INCORE               INCORE             OFF      [  0]   ***   
       INPUT_MRCC           IMRCC          OFF          [  0]   ***   
       INTEGRALS            INTTYP             VMOL     [  1]   ***   
       JODA_PRINT           IJPRNT              0               ***   
       LINDEP_TOL           ILINDP              8               ***   
       LINEQ_CONV           IZTACN          10D-  7           cycles  
       LINEQ_EXPOR          ILMAXD              5               ***   
       LINEQ_MAXCY          ILMAXC             50               ***   
       LINEQ_TYPE           ILTYPE         DIIS         [  1]   ***   
       LOCK_ORBOCC          ILOCOC             OFF      [  0]   ***   
       MEMORY_SIZE          IMEMSZ         *********           words  
       MEM_UNIT             IMEMU          GB           [  3]   ***   
       MRCC                 IMRCCC         OFF          [  0]   ***   
       MULTIPLICTY          IMULTP              3               ***   
       NEGEVAL              IDIE             ABORT      [  0]   ***   
       NEWNORM              INEWNO         OFF          [  0]   ***   
       NON-HF               INONHF              ON      [  1]   ***   
       NTOP_TAMP            ITOPT2             15               ***   
       NUC_MODEL            INUCMO         POINT        [  0]   ***   
       OCCUPATION           IOCCU  A   3,  0,  0,  0,  1,  0,  0,  0,
                                   B   1,  0,  0,  0,  1,  0,  0,  0,
       OPEN-SHELL           IOPEN          SPIN-ORBITAL [  0]   ***   
       ORBITALS             IORBTP         SEMICANONICAL[  1]   ***   
       PARALLEL             IPARAL         ON           [  1]   ***   
       PARA_INT             IPINTS         ON           [  1]   ***   
       PARA_PRINT           IPPRIN              0               ***   
       PERT_ORB             IPTORB         STANDARD     [  0]   ***   
       POINTS               IGRDFD              0               ***   
       PRINT                IPRNT               0               ***   
       PROPS                IPROPS             OFF      [  0]   ***   
       PROP_INTEGR          IINTYP         INTERNAL     [  0]   ***   
       PSI                  IPSI           OFF          [  0]   ***   
       QUARTIC              IQUART         OFF          [  0]   ***   
       RAMAN_INT            IRAMIN         OFF          [  0]   ***   
       RAMAN_ORB            IRAMRE         UNRELAXED    [  0]   ***   
       RDO                  IRDOFM             OFF      [  0]   ***   
       REFERENCE            IREFNC             ROHF     [  2]   ***   
       RELATIVIST           IRELAT         OFF          [  0]   ***   
       RELAX_DENS           IRDENS             OFF      [  0]   ***   
       RESET_FLAGS          IRESET             OFF      [  0]   ***   
       RESTART_CC           ICCRES         OFF          [  0]   ***   
       ROT_EVEC             ROTVEC              0               ***   
       SAVE_INTS            ISVINT              ON      [  1]   ***   
       SCALE_ON             ISTCRT              0               ***   
       SCF_CONV             ISCFCV          10D-  9             ***   
       SCF_DAMPING          IDAMP               0             x 10-3  
       SCF_EXPORDE          IRPPOR              6               ***   
       SCF_EXPSTAR          IRPPLS              8               ***   
       SCF_EXTRAPO          IRPP                ON      [  1]   ***   
       SCF_MAXCYC           ISCFCY            ***              cycles 
       SCF_NOSTOP           ISCFST         OFF          [  0]   ***   
       SCF_PRINT            ISCFPR              0               ***   
       SD_FIELD             IFINSD              0             x 10-6  
       SEQUENCE             ISEQUE         OFF          [  0]   ***   
       SOPERT               IPERSO         OFF          [  0]   ***   
       SPHERICAL            IDFGHI             ON       [  1]   ***   
       SPINORBIT            ISOCAL         OFF          [  0]   ***   
       SPINROTATIO          ISRCON         OFF          [  0]   ***   
       SPIN_FLIP            ISPFLP         OFF          [  0]   ***   
       SPIN_ORBIT           ISPORB         OFF          [  0]   ***   
       SPIN_SCAL            ISCSMP         OFF          [  0]   ***   
       SUBGROUP             ISUBGP         DEFAULT      [  0]   ***   
       SUBGRPAXIS           ISBXYZ         X            [  0]   ***   
       SYMMETRY             ISYM             ON         [  0]   ***   
       SYM_CHECK            ISYMCK         OVERRIDE     [  1]   ***   
       T3_EXTRAPOL          IT3EXT         ON           [  1]   ***   
       TAMP_SUM             IEVERY              5               ***   
       TESTSUITE            ITESTS         OFF          [  0]   ***   
       THERMOCH             ITHERM         OFF          [  0]   ***   
       TOL_CHOLESK          ITOLCH          10D-  4             ***   
       TRANGRAD             IRESRM         OFF          [  0]   ***   
       TRANS_INV            ITRAIN         USE          [  0]   ***   
       TREAT_PERT           ITREAT         SIMULTANEOUS [  0]   ***   
       UIJ_THRESHO          IUIJTH              1               ***   
       UNITS                IUNITS         ANGSTROM     [  0]   ***   
       UNOS                 IUNOS          OFF          [  0]   ***   
       UPDATE_HESS          IHUPDT         ON           [  1]   ***   
       VIBPHASE             ISETPH         STANDARD     [  0]   ***   
       VIBRATION            IVIB              NO        [  0]   ***   
       VIB_ALGORIT          IGEALG         STANDARD     [  0]   ***   
       VNATORB              IVNORB         OFF          [  0]   ***   
       VTRAN                IVTRAN         FULL/PARTIAL [  0]   ***   
       XFIELD               IXEFLD              0             x 10-6  
       XFORM_TOL            IXFTOL          10D- 18             ***   
       YFIELD               IYEFLD              0             x 10-6  
       ZFIELD               IZEFLD              0             x 10-6  
    -------------------------------------------------------------------
   2 entries found in Z-matrix 
   Job Title : Li2                                                                             
   There are  1 unique internal coordinates.
   Of these,  0 will be optimized.
   User supplied Z-matrix: 
--------------------------------------------------------------------------------
       SYMBOL    BOND      LENGTH    ANGLE     ANGLE     DIHED     ANGLE
                  TO      (ANGST)    WRT      (DEG)      WRT      (DEG)
--------------------------------------------------------------------------------
        Li   
        Li         1         R    
                  *Initial values for internal coordinates* 
                      Name             Value
                        R               3.0650000000
--------------------------------------------------------------------------------
  1  LI         3     7.01600
  2  LI         3     7.01600
 factor:   60.1997200000000     
   Rotational constants (in cm-1): 
          0.5115355570             0.5115355570
   Rotational constants (in MHz): 
      15335.4523476713         15335.4523476713
********************************************************************************
   The full molecular point group is DXh .
   The largest Abelian subgroup of the full molecular point group is D2h .
   The computational point group is D2h .
********************************************************************************
--------------------------------------------------------------------------------
   Analysis of internal coordinates specified by Z-matrix 
--------------------------------------------------------------------------------
   *The nuclear repulsion energy is    1.553864241435563 a.u.
   *There is   1 degree of freedom within the tot. symm. molecular subspace.
   *Z-matrix requests optimization of   0 coordinates.
   *The optimization is constrained.
   *The following   1 parameters can have non-zero 
    derivatives within the totally symmetric subspace:
             R    [ 1]
   *The following   0 parameters are to be optimized:

   *The following coordinates must be varied in an  unconstrained optimization.
             R    [ 1]
--------------------------------------------------------------------------------
 ----------------------------------------------------------------
 Z-matrix   Atomic            Coordinates (in bohr)
  Symbol    Number           X              Y              Z
 ----------------------------------------------------------------
     LI        3         0.00000000     0.00000000     2.89600589
     LI        3         0.00000000     0.00000000    -2.89600589
 ----------------------------------------------------------------
   Interatomic distance matrix (Angstroms) 
 
                 LI            LI   
                [ 1]        [ 2]
  LI   [ 1]     0.00000
  LI   [ 2]     3.06500     0.00000
   Rotational constants (in cm-1): 
          0.5115355570             0.0000000000
   Rotational constants (in MHz): 
      15335.4523476713             0.0000000000
  @GTFLGS-W, Keyword #SCF_EXPSTART not known and is ignored.
  @GTFLGS-W, Keyword #SCF_DAMPING not known and is ignored.
  @GTFLGS-W, Keyword #SCF_EXTRAPOLATION not known and is ignored.
  There are  118 basis functions.
 @GEOPT-W, Archive file not created for single-point calculation.
  @CHECKOUT-I, Total execution time (CPU/WALL):        0.10/       0.30 seconds.
--executable xjoda finished with status     0 in        0.47 seconds (walltime).
 --invoking executable--
/home/nike/cfour_v2.00beta/bin/xvmol
 Serial version of molecule started
********************************************************************************
                    Input from MOL file
********************************************************************************
INTGRL        1    0    1    0    0    0    0    0    0                         
         *** CFOUR Program System (Release V0.1) ***                            
Li2                                                                             
    1    3 X  Y   Z   0.10E-08              0    0                              
   9999.00      3.00                                                            
          3.00000000    1    4    1    1    1    1                              
LI#1   0.000000000000000   0.000000000000000   2.896005892923183                
   14    7                                                                      
   5988.00000000000       1.330000000000000E-004 -2.100000000000000E-005        
  0.000000000000000E+000  0.000000000000000E+000  0.000000000000000E+000        
  0.000000000000000E+000  0.000000000000000E+000                                
   898.900000000000       1.025000000000000E-003 -1.610000000000000E-004        
  0.000000000000000E+000  0.000000000000000E+000  0.000000000000000E+000        
  0.000000000000000E+000  0.000000000000000E+000                                
   205.900000000000       5.272000000000000E-003 -8.200000000000000E-004        
  0.000000000000000E+000  0.000000000000000E+000  0.000000000000000E+000        
  0.000000000000000E+000  0.000000000000000E+000                                
   59.2400000000000       2.092900000000000E-002 -3.326000000000000E-003        
  0.000000000000000E+000  0.000000000000000E+000  0.000000000000000E+000        
  0.000000000000000E+000  0.000000000000000E+000                                
   19.8700000000000       6.634000000000000E-002 -1.051900000000000E-002        
  0.000000000000000E+000  0.000000000000000E+000  0.000000000000000E+000        
  0.000000000000000E+000  0.000000000000000E+000                                
   7.40600000000000       0.165775000000000      -2.809700000000000E-002        
  0.000000000000000E+000  0.000000000000000E+000  0.000000000000000E+000        
  0.000000000000000E+000  0.000000000000000E+000                                
   2.93000000000000       0.315038000000000      -5.593600000000000E-002        
  0.000000000000000E+000  0.000000000000000E+000  0.000000000000000E+000        
  0.000000000000000E+000  0.000000000000000E+000                                
   1.18900000000000       0.393523000000000      -9.923700000000001E-002        
  0.000000000000000E+000  0.000000000000000E+000  0.000000000000000E+000        
  0.000000000000000E+000  0.000000000000000E+000                                
  0.479800000000000       0.190870000000000      -0.112189000000000             
  0.000000000000000E+000  0.000000000000000E+000  0.000000000000000E+000        
  0.000000000000000E+000  0.000000000000000E+000                                
  7.509000000000000E-002  5.414000000000000E-003  0.567889000000000             
   1.00000000000000       0.000000000000000E+000  0.000000000000000E+000        
  0.000000000000000E+000  0.000000000000000E+000                                
  2.832000000000000E-002 -1.328000000000000E-003  0.530382000000000             
  0.000000000000000E+000   1.00000000000000       0.000000000000000E+000        
  0.000000000000000E+000  0.000000000000000E+000                                
   1.97400000000000       0.000000000000000E+000  0.000000000000000E+000        
  0.000000000000000E+000  0.000000000000000E+000   1.00000000000000             
  0.000000000000000E+000  0.000000000000000E+000                                
  0.683000000000000       0.000000000000000E+000  0.000000000000000E+000        
  0.000000000000000E+000  0.000000000000000E+000  0.000000000000000E+000        
   1.00000000000000       0.000000000000000E+000                                
  7.600000000000000E-003  0.000000000000000E+000  0.000000000000000E+000        
  0.000000000000000E+000  0.000000000000000E+000  0.000000000000000E+000        
  0.000000000000000E+000   1.00000000000000                                     
    8    6                                                                      
   3.26600000000000       8.630000000000001E-003  0.000000000000000E+000        
  0.000000000000000E+000  0.000000000000000E+000  0.000000000000000E+000        
  0.000000000000000E+000                                                        
  0.651100000000000       4.753800000000000E-002  0.000000000000000E+000        
  0.000000000000000E+000  0.000000000000000E+000  0.000000000000000E+000        
  0.000000000000000E+000                                                        
  0.169600000000000       0.209772000000000       0.000000000000000E+000        
  0.000000000000000E+000  0.000000000000000E+000  0.000000000000000E+000        
  0.000000000000000E+000                                                        
  5.578000000000000E-002  0.528522000000000        1.00000000000000             
  0.000000000000000E+000  0.000000000000000E+000  0.000000000000000E+000        
  0.000000000000000E+000                                                        
  2.050000000000000E-002  0.382744000000000       0.000000000000000E+000        
   1.00000000000000       0.000000000000000E+000  0.000000000000000E+000        
  0.000000000000000E+000                                                        
   7.32000000000000       0.000000000000000E+000  0.000000000000000E+000        
  0.000000000000000E+000   1.00000000000000       0.000000000000000E+000        
  0.000000000000000E+000                                                        
   1.87500000000000       0.000000000000000E+000  0.000000000000000E+000        
  0.000000000000000E+000  0.000000000000000E+000   1.00000000000000             
  0.000000000000000E+000                                                        
  9.100000000000000E-003  0.000000000000000E+000  0.000000000000000E+000        
  0.000000000000000E+000  0.000000000000000E+000  0.000000000000000E+000        
   1.00000000000000                                                             
    4    4                                                                      
  0.187400000000000        1.00000000000000       0.000000000000000E+000        
  0.000000000000000E+000  0.000000000000000E+000                                
  8.010000000000000E-002  0.000000000000000E+000   1.00000000000000             
  0.000000000000000E+000  0.000000000000000E+000                                
   4.91200000000000       0.000000000000000E+000  0.000000000000000E+000        
   1.00000000000000       0.000000000000000E+000                                
  3.710000000000000E-002  0.000000000000000E+000  0.000000000000000E+000        
  0.000000000000000E+000   1.00000000000000                                     
    2    2                                                                      
  0.182900000000000        1.00000000000000       0.000000000000000E+000        
  8.160000000000001E-002  0.000000000000000E+000   1.00000000000000             
FINISH                                                                          
 
********************************************************************************
 One- and two-electron integrals over symmetry-adapted AOs are calculated.

  Spherical harmonics are used.
  
  Integrals less than  0.10E-13 are neglected.

  Nuclear repulsion energy :    1.5538642414 a.u.
  required memory for a1 array                6668032  words 
  required memory for a2 array                2664637  words 
 @GETMEM-I,  Allocated      86 MB of main memory.
  @MOLECU-I, One electron integrals (CPU/WALL):        0.01/       0.02 seconds.
  @TWOEL-I,      80503 integrals of symmetry type  I I I I
  @TWOEL-I,     694787 integrals of symmetry type  I J I J
  @TWOEL-I,     394176 integrals of symmetry type  I I J J
  @TWOEL-I,    1476051 integrals of symmetry type  I J K L
  @TWOEL-I, Total number of 2-e integrals    2645517.
  @MOLECU-I, Two electron integrals (CPU/WALL):        1.22/       1.68 seconds.
  @CHECKOUT-I, Total execution time (CPU/WALL):        1.24/       1.74 seconds.
--executable xvmol finished with status     0 in        1.90 seconds (walltime).
 --invoking executable--
/home/nike/cfour_v2.00beta/bin/xvmol2ja
 @GETMEM-I,  Allocated  488281 MB of main memory.
  @CHECKOUT-I, Total execution time (CPU/WALL):        0.00/       0.07 seconds.
--executable xvmol2ja finished with status     0 in        0.23 seconds (walltime).
 --invoking executable--
/home/nike/cfour_v2.00beta/bin/xvscf
  There are  118 functions in the AO basis.

  There are 8 irreducible representations.

       Irrep        # of functions
         1                 25
         2                 14
         3                 14
         4                  6
         5                 25
         6                 14
         7                 14
         8                  6


  Parameters for SCF calculation: 
        SCF reference function: ROHF  
  Maximum number of iterations: 9999
     Full symmetry point group: DXh 
     Computational point group: D2h 
        Initial density matrix: MOREAD                 
     SCF convergence tolerance: 10**(- 9)
  DIIS convergence acceleration:  ON
          Latest start for DIIS:   8
                     DIIS order:   6

     Alpha population by irrep:   3    0    0    0    1    0    0    0
      Beta population by irrep:   1    0    0    0    1    0    0    0


  Memory information:     650986 words required.
  Fock matrices are constructed from AO integral file.
 @GETMEM-I,  Allocated       4 MB of main memory.
  Initialization and symmetry analysis required      0.001 seconds.

 total no. of electrons in initial guess :  0.000000000000000E+000
 total no. of electrons in initial guess :  0.000000000000000E+000
  --------------------------------------------------------------------
  Iteration         Total Energy            Largest Density Difference
  --------------------------------------------------------------------
       0             1.553864241435562              0.0000000000D+00
   current occupation vector 
     3  0  0  0  1  0  0  0
     1  0  0  0  1  0  0  0
       1           -14.028062835144807              0.2563142516D+03
   current occupation vector 
     3  0  0  0  1  0  0  0
     1  0  0  0  1  0  0  0
       2           -14.652260791510027              0.2561064442D+03
   current occupation vector 
     3  0  0  0  1  0  0  0
     1  0  0  0  1  0  0  0
       3           -14.819710899503558              0.2610540370D+01
   current occupation vector 
     3  0  0  0  1  0  0  0
     1  0  0  0  1  0  0  0
       4           -14.823170320625405              0.2965193452D+00
   current occupation vector 
     3  0  0  0  1  0  0  0
     1  0  0  0  1  0  0  0
       5           -14.822344799984187              0.2948730430D+00
   current occupation vector 
     3  0  0  0  1  0  0  0
     1  0  0  0  1  0  0  0
       6           -14.824088120876507              0.1603775970D+00
   current occupation vector 
     3  0  0  0  1  0  0  0
     1  0  0  0  1  0  0  0
       7           -14.824118092019535              0.2874041404D-01
   current occupation vector 
     3  0  0  0  1  0  0  0
     1  0  0  0  1  0  0  0
       8           -14.824119301558028              0.5475821040D-02
   current occupation vector 
     3  0  0  0  1  0  0  0
     1  0  0  0  1  0  0  0
       9           -14.824119529446953              0.1530784972D-02
   current occupation vector 
     3  0  0  0  1  0  0  0
     1  0  0  0  1  0  0  0
      10           -14.824119533462440              0.2476366520D-03
   current occupation vector 
     3  0  0  0  1  0  0  0
     1  0  0  0  1  0  0  0
      11           -14.824119533784884              0.1652050325D-03
   current occupation vector 
     3  0  0  0  1  0  0  0
     1  0  0  0  1  0  0  0
      12           -14.824119533857505              0.3262625563D-04
   current occupation vector 
     3  0  0  0  1  0  0  0
     1  0  0  0  1  0  0  0
      13           -14.824119533858152              0.2945529723D-05
   current occupation vector 
     3  0  0  0  1  0  0  0
     1  0  0  0  1  0  0  0
      14           -14.824119533858244              0.8813949278D-06
   current occupation vector 
     3  0  0  0  1  0  0  0
     1  0  0  0  1  0  0  0
      15           -14.824119533858230              0.1892155793D-06
   current occupation vector 
     3  0  0  0  1  0  0  0
     1  0  0  0  1  0  0  0
      16           -14.824119533858198              0.3907026319D-07
   current occupation vector 
     3  0  0  0  1  0  0  0
     1  0  0  0  1  0  0  0
      17           -14.824119533858212              0.1721662457D-07
   current occupation vector 
     3  0  0  0  1  0  0  0
     1  0  0  0  1  0  0  0
      18           -14.824119533858187              0.1477883094D-08
   current occupation vector 
     3  0  0  0  1  0  0  0
     1  0  0  0  1  0  0  0

  SCF has converged.

 Density matrix saved to file den.dat
 total alpha spin electron number:   4.00000000000000     
 total  beta spin electron number:   1.99999999999999     
     E(ROHF)=       -14.824119533858198              0.9753693964D-09

  Eigenvector printing suppressed.


       The average multiplicity is    3.0000000
  The expectation value of S**2 is    2.0000000

 @PUTMOS-I, Writing converged MOs to NEWMOS. 
 @PUTMOS-I, Symmetry   1 Full Blocks  6 Partial Blocksize   1
 @PUTMOS-I, Symmetry   2 Full Blocks  3 Partial Blocksize   2
 @PUTMOS-I, Symmetry   3 Full Blocks  3 Partial Blocksize   2
 @PUTMOS-I, Symmetry   4 Full Blocks  1 Partial Blocksize   2
 @PUTMOS-I, Symmetry   5 Full Blocks  6 Partial Blocksize   1
 @PUTMOS-I, Symmetry   6 Full Blocks  3 Partial Blocksize   2
 @PUTMOS-I, Symmetry   7 Full Blocks  3 Partial Blocksize   2
 @PUTMOS-I, Symmetry   8 Full Blocks  1 Partial Blocksize   2
  @DMPJOB-I, Rotating orbitals to semicanonical basis.
             *** Eigenvalues correspond to new basis. ***



 
  ORBITAL EIGENVALUES (ALPHA)  (1H = 27.2113838 eV)

       MO #        E(hartree)               E(eV)           FULLSYM    COMPSYM
       ----   --------------------   --------------------   -------   ---------
    1     1          -2.4961295616         -67.9231395629    SGg+        Ag (1)
    2    60          -2.4958747316         -67.9162052885    SGu+       B1u (5)
    3     2          -0.2675119725          -7.2793709597    SGg+        Ag (1)
    4     3          -0.1085230893          -2.9530634358    SGg+        Ag (1)
  +++++++++++++++++++++++++++++++++++++++++++++++++++++++++++++++++++++++++++++
    5    61          -0.0412555517          -1.1226206514    SGu+       B1u (5)
    6    26           0.0009715129           0.0264362107    PIu        B2u (2)
    7    40           0.0009715129           0.0264362107    PIu        B3u (3)
    8    62           0.0173215751           0.4713440276    SGu+       B1u (5)
    9     4           0.0214879028           0.5847155706    SGg+        Ag (1)
   10    99           0.0236578083           0.6437617014    PIg        B2g (7)
   11    85           0.0236578083           0.6437617014    PIg        B3g (6)
   12     5           0.0284766766           0.7748897761    SGg+        Ag (1)
   13    27           0.0312325004           0.8498795555    PIu        B2u (2)
   14    41           0.0312325004           0.8498795555    PIu        B3u (3)
   15    63           0.0406389895           1.1058431403    SGu+       B1u (5)
   16   100           0.0601408266           1.6365151168    PIg        B2g (7)
   17    86           0.0601408266           1.6365151168    PIg        B3g (6)
   18     6           0.0865959031           2.3563943554    DEg         Ag (1)
   19    54           0.0865959031           2.3563943554    DEg        B1g (4)
   20    64           0.0936544664           2.5484676313    SGu+       B1u (5)
   21     7           0.0976278921           2.6565900440    SGg+        Ag (1)
   22    28           0.1077357167           2.9316379369    PIu        B2u (2)
   23    42           0.1077357167           2.9316379369    PIu        B3u (3)
   24     8           0.1151478054           3.1333311296    SGg+        Ag (1)
   25    65           0.1153001388           3.1374763317    SGu+       B1u (5)
   26    66           0.1231202597           3.3502726422    DEu        B1u (5)
   27   113           0.1231202597           3.3502726422    DEu         Au (8)
   28    43           0.1299891620           3.5371849782    PIu        B3u (3)
   29    29           0.1299891620           3.5371849782    PIu        B2u (2)
   30    87           0.1373487904           3.7374506528    PIg        B3g (6)
   31   101           0.1373487904           3.7374506528    PIg        B2g (7)
   32    88           0.1874827219           5.1016643054    PIg        B3g (6)
   33   102           0.1874827219           5.1016643054    PIg        B2g (7)
   34    67           0.2010829920           5.4717464750    SGu+       B1u (5)
   35     9           0.2217551343           6.0342640723    SGg+        Ag (1)
   36    68           0.2587054147           7.0397323366    SGu+       B1u (5)
   37    55           0.2802850660           7.6269445106    DEg        B1g (4)
   38    10           0.2802850660           7.6269445106    DEg         Ag (1)
   39    30           0.2880903337           7.8393366446    PHu        B2u (2)
   40    44           0.2880903337           7.8393366446    PHu        B3u (3)
   41    31           0.2900269308           7.8920341318    PIu        B2u (2)
   42    45           0.2900269308           7.8920341318    PIu        B3u (3)
   43    11           0.3092596078           8.4153818886    SGg+        Ag (1)
   44    69           0.3287132431           8.9447422247    DEu        B1u (5)
   45   114           0.3287132431           8.9447422247    DEu         Au (8)
   46    56           0.3287460250           8.9456342664    DEg        B1g (4)
   47    12           0.3287460250           8.9456342664    DEg         Ag (1)
   48    89           0.3465639129           9.4304836527    PHg        B3g (6)
   49   103           0.3465639129           9.4304836527    PHg        B2g (7)
   50    13           0.3590148955           9.7692921193    SGg+        Ag (1)
   51    90           0.3756309497          10.2214379462    PIg        B3g (6)
   52   104           0.3756309497          10.2214379462    PIg        B2g (7)
   53    70           0.3918480873          10.6627287019    SGu+       B1u (5)
   54    46           0.3928443924          10.6898395440    PIu        B3u (3)
   55    32           0.3928443924          10.6898395440    PIu        B2u (2)
   56   115           0.4332305304          11.7888022442    DEu         Au (8)
   57    71           0.4332305304          11.7888022442    DEu        B1u (5)
   58    91           0.4615294185          12.5588541500    PIg        B3g (6)
   59   105           0.4615294185          12.5588541500    PIg        B2g (7)
   60    72           0.4735000406          12.8845913425    SGu+       B1u (5)
   61    33           0.4792970090          13.0423348751    PIu        B2u (2)
   62    47           0.4792970090          13.0423348751    PIu        B3u (3)
   63    73           0.5296431734          14.4123236779    SGu+       B1u (5)
   64   106           0.5849612898          15.9176061776    PIg        B2g (7)
   65    92           0.5849612898          15.9176061776    PIg        B3g (6)
   66    14           0.7115219503          19.3614968860    SGg+        Ag (1)
   67    34           0.7619314223          20.7332083769    PIu        B2u (2)
   68    48           0.7619314223          20.7332083769    PIu        B3u (3)
   69    15           0.7642307889          20.7957773225    SGg+        Ag (1)
   70    16           0.7862238797          21.3942397582    DEg         Ag (1)
   71    57           0.7862238797          21.3942397582    DEg        B1g (4)
   72   116           0.8118090767          22.0904483747    DEu         Au (8)
   73    74           0.8118090767          22.0904483747    DEu        B1u (5)
   74   107           0.8742802760          23.7903761570    PIg        B2g (7)
   75    93           0.8742802760          23.7903761570    PIg        B3g (6)
   76    58           0.8798086221          23.9408101040    DEg        B1g (4)
   77    17           0.8798086221          23.9408101040    DEg         Ag (1)
   78    75           0.8826834921          24.0190392954    SGu+       B1u (5)
   79    35           0.9033369792          24.5810492589    PHu        B2u (2)
   80    49           0.9033369792          24.5810492589    PHu        B3u (3)
   81    18           0.9261669280          25.2022837590    SGg+        Ag (1)
   82   108           0.9412190098          25.6118717337    PHg        B2g (7)
   83    94           0.9412190098          25.6118717337    PHg        B3g (6)
   84    36           0.9460401861          25.7430626121    PIu        B2u (2)
   85    50           0.9460401861          25.7430626121    PIu        B3u (3)
   86   117           1.0303486032          28.0372113106    DEu         Au (8)
   87    76           1.0303486032          28.0372113106    DEu        B1u (5)
   88    77           1.1137951957          30.3079085654    SGu+       B1u (5)
   89    95           1.1533099612          31.3831600172    PIg        B3g (6)
   90   109           1.1533099612          31.3831600172    PIg        B2g (7)
   91    19           1.1823240762          32.1726742369    SGg+        Ag (1)
   92    78           1.4257950224          38.7978556035    SGu+       B1u (5)
   93    51           3.4249316022          93.1971283825    PIu        B3u (3)
   94    37           3.4249316022          93.1971283825    PIu        B2u (2)
   95    96           3.4582546561          94.1038947926    PIg        B3g (6)
   96   110           3.4582546561          94.1038947926    PIg        B2g (7)
   97    20           3.5879081406          97.6319455220    SGg+        Ag (1)
   98    79           3.6296653087          98.7682158514    SGu+       B1u (5)
   99    21           3.7620099948         102.3694979022    SGg+        Ag (1)
  100    80           3.9812356426         108.3349311461    SGu+       B1u (5)
  101    22          14.8405170218         403.8310047601    DEg         Ag (1)
  102    59          14.8405170218         403.8310047601    DEg        B1g (4)
  103    23          14.8415735239         403.8597536458    SGg+        Ag (1)
  104   118          14.8418455743         403.8671565121    DEu         Au (8)
  105    81          14.8418455743         403.8671565121    DEu        B1u (5)
  106    52          14.8420859671         403.8736979340    PIu        B3u (3)
  107    38          14.8420859671         403.8736979340    PIu        B2u (2)
  108    97          14.8503640635         404.0989563923    PIg        B3g (6)
  109   111          14.8503640635         404.0989563923    PIg        B2g (7)
  110    82          14.8584008720         404.3176490722    SGu+       B1u (5)
  111    24          15.8300397259         430.7572868605    SGg+        Ag (1)
  112    83          16.1649486776         439.8706228906    SGu+       B1u (5)
  113    39          18.2204001437         495.8023016569    PIu        B2u (2)
  114    53          18.2204001437         495.8023016569    PIu        B3u (3)
  115   112          18.2431286423         496.4207755556    PIg        B2g (7)
  116    98          18.2431286423         496.4207755556    PIg        B3g (6)
  117    84          18.3680763198         499.8207747662    SGu+       B1u (5)
  118    25          18.3937732270         500.5200231715    SGg+        Ag (1)


 
  ORBITAL EIGENVALUES ( BETA)  (1H = 27.2113838 eV)

       MO #        E(hartree)               E(eV)           FULLSYM    COMPSYM
       ----   --------------------   --------------------   -------   ---------
    1     1          -2.4868179082         -67.6697565885    SGg+        Ag (1)
    2    60          -2.4867640621         -67.6682913622    SGu+       B1u (5)
  +++++++++++++++++++++++++++++++++++++++++++++++++++++++++++++++++++++++++++++
    3     2          -0.0060728792          -0.1652514459    SGg+        Ag (1)
    4    61           0.0112305198           0.3055979845    SGu+       B1u (5)
    5    26           0.0140269125           0.3816917011    PIu        B2u (2)
    6    40           0.0140269125           0.3816917011    PIu        B3u (3)
    7     3           0.0226296956           0.6157853334    SGg+        Ag (1)
    8    85           0.0265106306           0.7213909454    PIg        B3g (6)
    9    99           0.0265106306           0.7213909454    PIg        B2g (7)
   10    62           0.0279880914           0.7615946970    SGu+       B1u (5)
   11     4           0.0353048039           0.9606925683    SGg+        Ag (1)
   12    41           0.0477507220           1.2993632245    PIu        B3u (3)
   13    27           0.0477507220           1.2993632245    PIu        B2u (2)
   14    63           0.0480332381           1.3070508784    SGu+       B1u (5)
   15     5           0.0691349560           1.8812578235    SGg+        Ag (1)
   16    86           0.0711191140           1.9352495086    PIg        B3g (6)
   17   100           0.0711191140           1.9352495086    PIg        B2g (7)
   18     6           0.0926828619           2.5220289285    DEg         Ag (1)
   19    54           0.0926828619           2.5220289285    DEg        B1g (4)
   20    64           0.1049339281           2.8553973928    SGu+       B1u (5)
   21    42           0.1264151535           3.4399312620    PIu        B3u (3)
   22    28           0.1264151535           3.4399312620    PIu        B2u (2)
   23    65           0.1279828191           3.4825896133    DEu        B1u (5)
   24   113           0.1279828191           3.4825896133    DEu         Au (8)
   25    66           0.1308282133           3.5600167265    SGu+       B1u (5)
   26     7           0.1317455818           3.5849795923    SGg+        Ag (1)
   27    43           0.1449558143           3.9444482999    PIu        B3u (3)
   28    29           0.1449558143           3.9444482999    PIu        B2u (2)
   29     8           0.1478964156           4.0244661300    SGg+        Ag (1)
   30    87           0.1480338718           4.0282065037    PIg        B3g (6)
   31   101           0.1480338718           4.0282065037    PIg        B2g (7)
   32    88           0.1979014202           5.3851715033    PIg        B3g (6)
   33   102           0.1979014202           5.3851715033    PIg        B2g (7)
   34    67           0.2176718215           5.9231514804    SGu+       B1u (5)
   35     9           0.2366561275           6.4397407200    SGg+        Ag (1)
   36    68           0.2894621924           7.8766668177    SGu+       B1u (5)
   37    30           0.2938760301           7.9967734498    PHu        B2u (2)
   38    44           0.2938760301           7.9967734498    PHu        B3u (3)
   39    55           0.2939390002           7.9984869529    DEg        B1g (4)
   40    10           0.2939390002           7.9984869529    DEg         Ag (1)
   41    31           0.3189160833           8.6781479476    PIu        B2u (2)
   42    45           0.3189160833           8.6781479476    PIu        B3u (3)
   43    69           0.3367986163           9.1647564175    DEu        B1u (5)
   44   114           0.3367986163           9.1647564175    DEu         Au (8)
   45    11           0.3380064647           9.1976236445    DEg         Ag (1)
   46    56           0.3380064647           9.1976236445    DEg        B1g (4)
   47    89           0.3510155703           9.5516194107    PHg        B3g (6)
   48   103           0.3510155703           9.5516194107    PHg        B2g (7)
   49    12           0.3537513928           9.6260649256    SGg+        Ag (1)
   50    13           0.3727165949          10.1421343208    SGg+        Ag (1)
   51    90           0.3867621595          10.5243335702    PIg        B3g (6)
   52   104           0.3867621595          10.5243335702    PIg        B2g (7)
   53    46           0.4047250036          11.0131274136    PIu        B3u (3)
   54    32           0.4047250036          11.0131274136    PIu        B2u (2)
   55    70           0.4070415767          11.0761645740    SGu+       B1u (5)
   56   115           0.4397947136          11.9674227537    DEu         Au (8)
   57    71           0.4397947136          11.9674227537    DEu        B1u (5)
   58    91           0.4732237463          12.8770729920    PIg        B3g (6)
   59   105           0.4732237463          12.8770729920    PIg        B2g (7)
   60    72           0.4850591580          13.1991309229    SGu+       B1u (5)
   61    47           0.4899341329          13.3317857379    PIu        B3u (3)
   62    33           0.4899341329          13.3317857379    PIu        B2u (2)
   63    73           0.5576120839          15.1733964363    SGu+       B1u (5)
   64   106           0.5924178290          16.1205089267    PIg        B2g (7)
   65    92           0.5924178290          16.1205089267    PIg        B3g (6)
   66    14           0.7297247744          19.8568209193    SGg+        Ag (1)
   67    15           0.7867763037          21.4092719814    SGg+        Ag (1)
   68    34           0.7902175880          21.5029140884    PIu        B2u (2)
   69    48           0.7902175880          21.5029140884    PIu        B3u (3)
   70    16           0.7958243280          21.6554812434    DEg         Ag (1)
   71    57           0.7958243280          21.6554812434    DEg        B1g (4)
   72   116           0.8194790669          22.2991594211    DEu         Au (8)
   73    74           0.8194790669          22.2991594211    DEu        B1u (5)
   74   107           0.8872486711          24.1432641338    PIg        B2g (7)
   75    93           0.8872486711          24.1432641338    PIg        B3g (6)
   76    58           0.8955901678          24.3702478004    DEg        B1g (4)
   77    17           0.8955901678          24.3702478004    DEg         Ag (1)
   78    75           0.8981602608          24.4401835892    SGu+       B1u (5)
   79    35           0.9103468010          24.7717962102    PHu        B2u (2)
   80    49           0.9103468010          24.7717962102    PHu        B3u (3)
   81   108           0.9475322147          25.7836627761    PHg        B2g (7)
   82    94           0.9475322147          25.7836627761    PHg        B3g (6)
   83    18           0.9506656693          25.8689284123    SGg+        Ag (1)
   84    36           0.9627093101          26.1966525441    PIu        B2u (2)
   85    50           0.9627093101          26.1966525441    PIu        B3u (3)
   86   117           1.0418247407          28.3494928919    DEu         Au (8)
   87    76           1.0418247407          28.3494928919    DEu        B1u (5)
   88    77           1.1355044461          30.8986473118    SGu+       B1u (5)
   89    95           1.1689389341          31.8084459981    PIg        B3g (6)
   90   109           1.1689389341          31.8084459981    PIg        B2g (7)
   91    19           1.2019476052          32.7066576159    SGg+        Ag (1)
   92    78           1.4342397150          39.0276473746    SGu+       B1u (5)
   93    37           3.4279325309          93.2787878051    PIu        B2u (2)
   94    51           3.4279325309          93.2787878051    PIu        B3u (3)
   95    96           3.4614092097          94.1897345626    PIg        B3g (6)
   96   110           3.4614092097          94.1897345627    PIg        B2g (7)
   97    20           3.5927339217          97.7632617058    SGg+        Ag (1)
   98    79           3.6387395877          99.0151395412    SGu+       B1u (5)
   99    21           3.7706595676         102.6048647472    SGg+        Ag (1)
  100    80           3.9863880542         108.4751353970    SGu+       B1u (5)
  101    22          14.8413596308         403.8539333192    DEg         Ag (1)
  102    59          14.8413596308         403.8539333192    DEg        B1g (4)
  103   118          14.8426883043         403.8900883632    DEu         Au (8)
  104    81          14.8426883043         403.8900883632    DEu        B1u (5)
  105    23          14.8432447195         403.9052291904    SGg+        Ag (1)
  106    52          14.8435428605         403.9133420195    PIu        B3u (3)
  107    38          14.8435428605         403.9133420195    PIu        B2u (2)
  108    97          14.8518153898         404.1384489900    PIg        B3g (6)
  109   111          14.8518153898         404.1384489900    PIg        B2g (7)
  110    82          14.8600375974         404.3621866355    SGu+       B1u (5)
  111    24          15.8343170265         430.8736781280    SGg+        Ag (1)
  112    83          16.1691514598         439.9849864108    SGu+       B1u (5)
  113    53          18.2233547280         495.8826999842    PIu        B3u (3)
  114    39          18.2233547280         495.8826999842    PIu        B2u (2)
  115   112          18.2460795919         496.5010749785    PIg        B2g (7)
  116    98          18.2460795919         496.5010749785    PIg        B3g (6)
  117    84          18.3716342616         499.9175912848    SGu+       B1u (5)
  118    25          18.3973077733         500.6162030674    SGg+        Ag (1)


  VSCF finished.

  @CHECKOUT-I, Total execution time (CPU/WALL):        0.42/       0.53 seconds.
--executable xvscf finished with status     0 in        0.70 seconds (walltime).
 --invoking executable--
/home/nike/cfour_v2.00beta/bin/xvtran
 @GETMEM-I,  Allocated  488281 MB of main memory.
  Full UHF integral transformation
  Transformation of IIII integrals :
  2 passes through the AO integral file were required.
       80503 AO integrals were read.
      128672 MO integrals (Spin case AAAA) were written to HF2AA.
      128672 MO integrals (Spin case BBBB) were written to HF2BB.
      256232 MO integrals (Spin case AABB) were written to HF2AB.
  Transformation of IIJJ integrals :
  2 passes through the AO integral file were required.
      394176 AO integrals were read.
      490156 MO integrals (Spin case AAAA) were written to HF2AA.
      490156 MO integrals (Spin case BBBB) were written to HF2BB.
      980311 MO integrals (Spin case AABB) were written to HF2AB.
  Transformation of IJIJ integrals :
  2 passes through the AO integral file were required.
      694787 AO integrals were read.
      877387 MO integrals (Spin case AAAA) were written to HF2AA.
      877387 MO integrals (Spin case BBBB) were written to HF2BB.
     1748864 MO integrals (Spin case AABB) were written to HF2AB.
  Transformation of IJKL integrals :
  2 passes through the AO integral file were required.
     1476051 AO integrals were read.
     1665684 MO integrals (Spin case AAAA) were written to HF2AA.
     1665684 MO integrals (Spin case BBBB) were written to HF2BB.
     3331367 MO integrals (Spin case AABB) were written to HF2AB.
  Summary of active molecular orbitals: 
------------------------------------------------------------------------
                         * Spin case alpha *
 
  Index      Eigenvalue    Symmetry    Index      Eigenvalue    Symmetry
------------------------------------------------------------------------
     1        -2.4961296        1        60        14.8405170        4
     2        -0.2675120        1        61        -0.0412556        5
     3        -0.1085231        1        62         0.0173216        5
     4        -2.4958747        5        63         0.0406390        5
     5         0.0214879        1        64         0.0936545        5
     6         0.0284767        1        65         0.1153001        5
     7         0.0865959        1        66         0.1231203        5
     8         0.0976279        1        67         0.2010830        5
     9         0.1151478        1        68         0.2587054        5
    10         0.2217551        1        69         0.3287132        5
    11         0.2802851        1        70         0.3918481        5
    12         0.3092596        1        71         0.4332305        5
    13         0.3287460        1        72         0.4735000        5
    14         0.3590149        1        73         0.5296432        5
    15         0.7115220        1        74         0.8118091        5
    16         0.7642308        1        75         0.8826835        5
    17         0.7862239        1        76         1.0303486        5
    18         0.8798086        1        77         1.1137952        5
    19         0.9261669        1        78         1.4257950        5
    20         1.1823241        1        79         3.6296653        5
    21         3.5879081        1        80         3.9812356        5
    22         3.7620100        1        81        14.8418456        5
    23        14.8405170        1        82        14.8584009        5
    24        14.8415735        1        83        16.1649487        5
    25        15.8300397        1        84        18.3680763        5
    26        18.3937732        1        85         0.0236578        6
    27         0.0009715        2        86         0.0601408        6
    28         0.0312325        2        87         0.1373488        6
    29         0.1077357        2        88         0.1874827        6
    30         0.1299892        2        89         0.3465639        6
    31         0.2880903        2        90         0.3756309        6
    32         0.2900269        2        91         0.4615294        6
    33         0.3928444        2        92         0.5849613        6
    34         0.4792970        2        93         0.8742803        6
    35         0.7619314        2        94         0.9412190        6
    36         0.9033370        2        95         1.1533100        6
    37         0.9460402        2        96         3.4582547        6
    38         3.4249316        2        97        14.8503641        6
    39        14.8420860        2        98        18.2431286        6
    40        18.2204001        2        99         0.0236578        7
    41         0.0009715        3       100         0.0601408        7
    42         0.0312325        3       101         0.1373488        7
    43         0.1077357        3       102         0.1874827        7
    44         0.1299892        3       103         0.3465639        7
    45         0.2880903        3       104         0.3756309        7
    46         0.2900269        3       105         0.4615294        7
    47         0.3928444        3       106         0.5849613        7
    48         0.4792970        3       107         0.8742803        7
    49         0.7619314        3       108         0.9412190        7
    50         0.9033370        3       109         1.1533100        7
    51         0.9460402        3       110         3.4582547        7
    52         3.4249316        3       111        14.8503641        7
    53        14.8420860        3       112        18.2431286        7
    54        18.2204001        3       113         0.1231203        8
    55         0.0865959        4       114         0.3287132        8
    56         0.2802851        4       115         0.4332305        8
    57         0.3287460        4       116         0.8118091        8
    58         0.7862239        4       117         1.0303486        8
    59         0.8798086        4       118        14.8418456        8
------------------------------------------------------------------------
------------------------------------------------------------------------
                         * Spin case beta *
 
  Index      Eigenvalue    Symmetry    Index      Eigenvalue    Symmetry
------------------------------------------------------------------------
     1        -2.4868179        1        60        14.8413596        4
     2        -2.4867641        5        61         0.0112305        5
     3        -0.0060729        1        62         0.0279881        5
     4         0.0226297        1        63         0.0480332        5
     5         0.0353048        1        64         0.1049339        5
     6         0.0691350        1        65         0.1279828        5
     7         0.0926829        1        66         0.1308282        5
     8         0.1317456        1        67         0.2176718        5
     9         0.1478964        1        68         0.2894622        5
    10         0.2366561        1        69         0.3367986        5
    11         0.2939390        1        70         0.4070416        5
    12         0.3380065        1        71         0.4397947        5
    13         0.3537514        1        72         0.4850592        5
    14         0.3727166        1        73         0.5576121        5
    15         0.7297248        1        74         0.8194791        5
    16         0.7867763        1        75         0.8981603        5
    17         0.7958243        1        76         1.0418247        5
    18         0.8955902        1        77         1.1355044        5
    19         0.9506657        1        78         1.4342397        5
    20         1.2019476        1        79         3.6387396        5
    21         3.5927339        1        80         3.9863881        5
    22         3.7706596        1        81        14.8426883        5
    23        14.8413596        1        82        14.8600376        5
    24        14.8432447        1        83        16.1691515        5
    25        15.8343170        1        84        18.3716343        5
    26        18.3973078        1        85         0.0265106        6
    27         0.0140269        2        86         0.0711191        6
    28         0.0477507        2        87         0.1480339        6
    29         0.1264152        2        88         0.1979014        6
    30         0.1449558        2        89         0.3510156        6
    31         0.2938760        2        90         0.3867622        6
    32         0.3189161        2        91         0.4732237        6
    33         0.4047250        2        92         0.5924178        6
    34         0.4899341        2        93         0.8872487        6
    35         0.7902176        2        94         0.9475322        6
    36         0.9103468        2        95         1.1689389        6
    37         0.9627093        2        96         3.4614092        6
    38         3.4279325        2        97        14.8518154        6
    39        14.8435429        2        98        18.2460796        6
    40        18.2233547        2        99         0.0265106        7
    41         0.0140269        3       100         0.0711191        7
    42         0.0477507        3       101         0.1480339        7
    43         0.1264152        3       102         0.1979014        7
    44         0.1449558        3       103         0.3510156        7
    45         0.2938760        3       104         0.3867622        7
    46         0.3189161        3       105         0.4732237        7
    47         0.4047250        3       106         0.5924178        7
    48         0.4899341        3       107         0.8872487        7
    49         0.7902176        3       108         0.9475322        7
    50         0.9103468        3       109         1.1689389        7
    51         0.9627093        3       110         3.4614092        7
    52         3.4279325        3       111        14.8518154        7
    53        14.8435429        3       112        18.2460796        7
    54        18.2233547        3       113         0.1279828        8
    55         0.0926829        4       114         0.3367986        8
    56         0.2939390        4       115         0.4397947        8
    57         0.3380065        4       116         0.8194791        8
    58         0.7958243        4       117         1.0418247        8
    59         0.8955902        4       118        14.8426883        8
------------------------------------------------------------------------
  @CHECKOUT-I, Total execution time (CPU/WALL):        1.62/       9.74 seconds.
--executable xvtran finished with status     0 in       10.10 seconds (walltime).
 --invoking executable--
/home/nike/cfour_v2.00beta/bin/xintprc
 @GETMEM-I,  Allocated  488281 MB of main memory.
  Processing integrals for CCSD calculation.
  @GMOIAA-I, Processing MO integrals for spin case AA.
  @GMOIAA-I, Generation of integral list completed.
                      TYPE                NUMBER
                      ----               --------
                      PPPP               2740270
                      PPPH                395166
                      PPHH                 15544
                      PHPH                  9973
                      PHHH                   912
                      HHHH                    34

                     TOTAL               3161899
  @GMOIAA-I, Processing MO integrals for spin case BB.
  @GMOIAA-I, Generation of integral list completed.
                      TYPE                NUMBER
                      ----               --------
                      PPPP               2944923
                      PPPH                209568
                      PPHH                  4132
                      PHPH                  3128
                      PHHH                   144
                      HHHH                     4

                     TOTAL               3161899
  @GMOIAB-I, Processing MO integrals for spin case AB.
                      TYPE                NUMBER
                      ----               --------
                      PPPP               5674551
                      PPPH1H              410756
                      PPPH2H              201584
                      PPHH                 15680
                      PHPH1P                2986
                      PHPH2P               10446
                      PHHH1P                 274
                      PHHH2P                 480
                      HHHH                    17

                     TOTAL               6316774
            ----------------------------------------------
                     Projected spin multiplicities: 
            ----------------------------------------------
             <0|S^2|0>                  =    2.0000000000.
             <0|S^2 T2|0>               =    0.0000000000.
             Projected <0|S^2 exp(T)|0> =    2.0000000000.
             Approximate spin mult.     =    3.0000000000.
            ----------------------------------------------
   Largest T2 amplitudes for spin case AA:
   i   j   a   b             i   j   a   b             i   j   a   b
-----------------------------------------------------------------------------
[  3   2  67  61] 0.02576 [  3   2  68  61]-0.02504 [  3   2  64  61]-0.01989
[  3   2  65  61]-0.01707 [  3   2  29  27]-0.01427 [  3   2  43  41]-0.01427
[  3   2  32  27]-0.01147 [  3   2  46  41]-0.01147 [  3   2  73  61] 0.01140
[  3   2  63  61] 0.00925 [  3   2  32  28]-0.00853 [  3   2  46  42]-0.00853
[  3   2  29  28]-0.00845 [  3   2  43  42]-0.00845 [  3   2  70  61]-0.00845
-----------------------------------------------------------------------------
   Norm of T2AA vector (     5571 symmetry allowed elements):  0.0672347565.
-----------------------------------------------------------------------------
   Largest T2 amplitudes for spin case BB:
   i   j   a   b             i   j   a   b             i   j   a   b
-----------------------------------------------------------------------------
[  2   1  73  15] 0.00006 [  2   1  73  13]-0.00005 [  2   1  73  21]-0.00005
[  2   1  79  15]-0.00004 [  2   1  73   9] 0.00004 [  2   1  73  16] 0.00004
[  2   1  79  21] 0.00004 [  2   1  79  13] 0.00004 [  2   1  77  15] 0.00004
[  2   1  73  22] 0.00004 [  2   1 105  48]-0.00004 [  2   1  91  34]-0.00004
[  2   1  91  38] 0.00004 [  2   1 105  52] 0.00004 [  2   1 110  52]-0.00003
-----------------------------------------------------------------------------
   Norm of T2BB vector (     1004 symmetry allowed elements):  0.0002337919.
-----------------------------------------------------------------------------
   Largest T2 amplitudes for spin case AB:
       _       _                 _       _                 _       _
   i   j   a   b             i   j   a   b             i   j   a   b
-----------------------------------------------------------------------------
[  1   1  38  38]-0.00808 [  1   1  52  52]-0.00808 [  4   2  38  38]-0.00805
[  4   2  52  52]-0.00805 [  4   1  96  38]-0.00804 [  4   1 110  52]-0.00804
[  1   2  38  96]-0.00803 [  1   2  52 110]-0.00803 [  4   1  38  96]-0.00800
[  4   1  52 110]-0.00800 [  1   2  96  38]-0.00800 [  1   2 110  52]-0.00800
[  4   2  96  96]-0.00799 [  4   2 110 110]-0.00799 [  1   1  96  96]-0.00795
-----------------------------------------------------------------------------
   Norm of T2AB vector (    15680 symmetry allowed elements):  0.0719265247.
-----------------------------------------------------------------------------
  @CHECKOUT-I, Total execution time (CPU/WALL):        1.31/      11.32 seconds.
--executable xintprc finished with status     0 in       18.72 seconds (walltime).
 --invoking executable--
/home/nike/cfour_v2.00beta/bin/xint
 @GETMEM-I,  Allocated  488281 MB of main memory.
  @CHECKOUT-I, Total execution time (CPU/WALL):       23.86/      32.51 seconds.
--executable xint finished with status     0 in       46.07 seconds (walltime).
 --invoking executable--
/home/nike/MRCC/dmrcc
 **********************************************************************
                          MRCC program system
 **********************************************************************
 
                              Written by
    Mihaly Kallay, Zoltan Rolik, Jozsef Csontos, Istvan Ladjanszki,
       Lorant Szegedy, Bence Ladoczki, Gyula Samu, Klara Petrov,
        Mate Farkas, Peter Nagy, David Mester, and Bence Hegely
 
        Department of Physical Chemistry and Materials Science
            Budapest University of Technology and Economics
                  Budapest P.O.Box 91, H-1521 Hungary
 
                              www.mrcc.hu

 ************************ 2018-03-09 17:12:56 *************************
 Executing minp...

 Reading input from MINP...
 
 Input file:
 
# TITLE
basis=aug-cc-pCVTZ
iface=cfour
uncontract=off
calc=CC(6)
mem=512GB
core=corr
itol=18
scftol=14
cctol=7
ccmaxit=999
scfmaxit=9999
scfiguess=ao
scftype=ROHF
rohftype=semicanonical
rest=2
refdet=serialno
1,2
3,4

symm=1
mult=3
occ=3,0,0,0,0,1,0,0/1,0,0,0,0,1,0,0
geom
Li
Li 1 R

R=3.065

unit=angstroms

 
 
 Checking keyword combinations...
 
 Keywords:
 
 active=none
 agrid=ld0006-ld0590
 basis=aug-cc-pcvtz
 basopt=off
 bpcompo=0.985
 bpcompv=0.98
 bpdfo=0.985
 bpocc=0.985
 bppdo=0.985
 bppdv=0.98
 bpedo=0.985
 bpedv=0.98
 calc=cc(6)
 ccmaxit=999
 ccprog=mrcc
 cctol=7
 charge=0
 cialg=disk
 ciguess=off
 cmpgrp=auto
 core=corr
 corembed=off
 dboc=off
 dendec=cholesky
 dens=0
 dfalg=invsqrt
 dfbasis_cor=none
 dfbasis_scf=none
 dfintran=ovirt
 dft=off
 diag=david
 domrad=10.d0
 drpaalg=fit
 ecp=auto
 edisp=off
 embed=off
 epert=none
 eps=0.975
 excrad=0.d0
 excrad_fin=0.000000000D+00
 freq=off
 gauss=spher
 geom=zmat
 gopt=off
 ghost=none
 gtol=7
 grtol=10
 hamilton=dc
 iface=cfour
 intalg=auto
 itol=18
 lcorthr=loose
 lccrest=off
 lmp2dens=on
 lnoepso=3e-5
 lnoepsv=1e-6
 localcc=off
 locintrf=disk
 maxact=off
 maxex=0
 bfbasis=none
 mem=512gb
 molden=on
 mulmet=0
 mult=3
 nacto=0
 nactv=0
 naf_cor=off
 naf_scf=off
 nafalg=albe
 naftyp=
 nchol=auto
 ndeps=1e-3
 nstate=1
 nsing=0
 ntrip=0
 occ=3,0,0,0,0,1,0,0/1,0,0,0,0,1,0,0
 optalg=
 optmaxit=50
 optetol=1e-6
 optgtol=1e-4
 optstol=1e-3
 orblocc=off
 orbloco=off
 orblocv=off
 osveps=1e-3
 ovirt=off
 ovosnorb=80.0
 ptfreq=0.0
 popul=off
 pressure=100000
 qmmm=off
 refdet=serialno
 rest=2
 rgrid=log3
 rohftype=semicanonical
 scspe=1.d0
 scsps=1.2d0
 scspt=0.33333333333333
 scfalg=auto
 scfdamp=off
 scfdiis=on
 scfdiis_end=9999
 scfdiis_start=1
 scfdiis_step=1
 scfdtol=18
 scfext=10
 scfiguess=ao
 scflshift=off
 scfmaxit=9999
 scftype=rohf
 scftol=14
 spairtol=1e-4
 symm=1
 talg=occ
 temp=298.15
 test=off
 tprint=off
 uncontract=off
 unit=angs
 verbosity=2
 wpairtol=0.100000000E-05

 ************************ 2018-03-09 17:12:57 *************************
 Executing goldstone...

 Generation of CC equations in terms of H and T...
 Generation of antisymmetrized Goldstone diagrams...
 Number of diagrams in T^1 equations:    15
 Number of diagrams in T^2 equations:    38
 Number of diagrams in T^3 equations:    54
 Number of diagrams in T^4 equations:    81
 Number of diagrams in T^5 equations:   105
 Number of diagrams in T^6 equations:   135
 Translation of diagrams to factorized equations...
 Optimizing intermediate calculation...
 Number of floating-point operations per iteration step:   3.2890E+15
 Probable CPU time per iteration step (hours):  32889.87
 Required memory (Mbytes): 8537594.9
 Number of intermediates:                                 191
 Number of intermediates to be stored:                     73
 Length of intermediate file (Mbytes):   74420.3

 ************************ 2018-03-09 17:13:01 *************************
 Executing xmrcc...

 **********************************************************************
 CC(                     6 ) calculation 
 
 
 Allocation of****** Mbytes of memory...
 Number of spinorbitals:                   236
 Number of alpha electrons:                        4
 Number of beta electrons:                         2
 Spin multiplicity:                     2
 z-component of spin:  1.0
 Spatial symmetry:                      1
 Convergence criterion:  1.0E-07
 Construction of occupation graphs...
 Number of                     0 -fold excitations:                      1
 Number of                     1 -fold excitations:                    138
 Number of                     2 -fold excitations:                  22255
 Number of                     3 -fold excitations:                1701444
 Number of                     4 -fold excitations:               61750286
 Number of                     5 -fold excitations:              998631680
 Number of                     6 -fold excitations:             5567103664
 Total number of configurations:             6629209468
 Calculation of coupling coefficients...
 Length of intermediate file (Mbytes):   43896.5
 
 ======================================================================
 
 Memory requirements /Mbyte/: 
               Minimal        Optimal
 Real*8:   39829393.7111  39829393.7111
 Integer:      2539.8972
 Total:    39831933.6083  39831933.6083
 

 ************************ 2018-03-09 17:14:24 *************************
 Executing goldstone...

 Generation of MRCC equations in terms of H and T...
 Generation of antisymmetrized Goldstone diagrams...
 Number of diagrams in T^1 equations:    15
 Number of diagrams in T^2 equations:    38
 Number of diagrams in T^3 equations:    54
 Number of diagrams in T^4 equations:    81
 Number of diagrams in T^5 equations:   105
 Number of diagrams in T^6 equations:   135
 Translation of diagrams to factorized equations...
 Number of restricted diagrams in T^1 equations:     30
 Number of restricted diagrams in T^2 equations:    129
 Number of restricted diagrams in T^3 equations:    306
 Number of restricted diagrams in T^4 equations:    674
 Number of restricted diagrams in T^5 equations:   1282
 Number of restricted diagrams in T^6 equations:   2288
 Optimizing intermediate calculation...
 Number of floating-point operations per iteration step:   2.1379E+15
 Probable CPU time per iteration step (hours):  21378.59
 Required memory (Mbytes):  120973.9
 Number of intermediates:                                1215
 Number of intermediates to be stored:                    379
 Length of intermediate file (Mbytes):  348149.7

 ************************ 2018-03-09 17:14:35 *************************
 Executing xmrcc...

 **********************************************************************
 MRCC(                     6 ) calculation 
 
 
 Allocation of****** Mbytes of memory...
 Number of spinorbitals:                   236
 Number of alpha electrons:                        4
 Number of beta electrons:                         2
 Number of active particles:                   116
 Number of active holes:                         0
 Spin multiplicity:                     2
 z-component of spin:  1.0
 Spatial symmetry:                      1
 Convergence criterion:  1.0E-07
 Construction of occupation graphs...
 Number of                     0 -fold excitations:                      1
 Number of                     1 -fold excitations:                    138
 Number of                     2 -fold excitations:                  22255
 Number of                     3 -fold excitations:                1701444
 Number of                     4 -fold excitations:               61750286
 Number of                     5 -fold excitations:              998631680
 Number of                     6 -fold excitations:             5567103664
 Total number of configurations:             6629209468
 Calculation of coupling coefficients...
 Length of intermediate file (Mbytes):  289740.1
 
 ======================================================================
 
 Memory requirements /Mbyte/: 
               Minimal        Optimal
 Real*8:     570857.6906    570857.6906
 Integer:      2597.8336
 Total:      573455.5242    573455.5242
 

 ************************ 2018-03-09 17:16:31 *************************
 Executing goldstone...

 Generation of MRCC equations in terms of H and T...
 Generation of antisymmetrized Goldstone diagrams...
 Number of diagrams in T^1 equations:    15
 Number of diagrams in T^2 equations:    38
 Number of diagrams in T^3 equations:    54
 Number of diagrams in T^4 equations:    81
 Number of diagrams in T^5 equations:   105
 Number of diagrams in T^6 equations:   135
 Translation of diagrams to factorized equations...
 Number of restricted diagrams in T^1 equations:     30
 Number of restricted diagrams in T^2 equations:    129
 Number of restricted diagrams in T^3 equations:    306
 Number of restricted diagrams in T^4 equations:    674
 Number of restricted diagrams in T^5 equations:   1282
 Number of restricted diagrams in T^6 equations:   2288
 Optimizing intermediate calculation...
 Number of floating-point operations per iteration step:   2.1805E+15
 Probable CPU time per iteration step (hours):  21804.65
 Required memory (Mbytes):  134489.6
 Number of intermediates:                                1217
 Number of intermediates to be stored:                    379
 Length of intermediate file (Mbytes):  355785.0

 ************************ 2018-03-09 17:16:40 *************************
[...]
 Spin multiplicity:                     2
 z-component of spin:  1.0
 Spatial symmetry:                      1
 Convergence criterion:  1.0E-07
 Construction of occupation graphs...
 Number of                     0 -fold excitations:                      1
 Number of                     1 -fold excitations:                    138
 Number of                     2 -fold excitations:                  22255
 Number of                     3 -fold excitations:                1701444
 Number of                     4 -fold excitations:               61750286
 Total number of configurations:               63474124
 Calculation of coupling coefficients...
 Length of intermediate file (Mbytes):    9816.8
 
 ======================================================================
 
 Spin case  1   Alpha:  3   Beta:  2
 Number of excitations:               30324275
 Spin case  2   Alpha:  4   Beta:  1
 Number of excitations:                7312131
 Spin case  3   Alpha:  3   Beta:  2
 Number of excitations:               84846346
 Spin case  4   Alpha:  3   Beta:  2
 Number of excitations:               57593654
 Spin case  5   Alpha:  4   Beta:  1
 Number of excitations:               27766584
 Spin case  6   Alpha:  4   Beta:  1
 Number of excitations:                6824873
 Spin case  7   Alpha:  3   Beta:  2
 Number of excitations:               76246045
 Spin case  8   Alpha:  3   Beta:  2
 Number of excitations:              161202532
 Spin case  9   Alpha:  3   Beta:  2
 Number of excitations:               26390077
 Spin case 10   Alpha:  4   Beta:  1
 Number of excitations:               38112579
 Spin case 11   Alpha:  4   Beta:  1
 Number of excitations:               25918936
 Spin case 12   Alpha:  3   Beta:  2
 Number of excitations:               22002998
 Spin case 13   Alpha:  3   Beta:  2
 Number of excitations:              144888682
 Spin case 14   Alpha:  3   Beta:  2
 Number of excitations:               73857918
 Spin case 15   Alpha:  4   Beta:  1
 Number of excitations:               22379760
 Spin case 16   Alpha:  4   Beta:  1
 Number of excitations:               35580241
 Spin case 17   Alpha:  3   Beta:  2
 Number of excitations:               41792156
 Spin case 18   Alpha:  3   Beta:  2
 Number of excitations:               66376467
 Spin case 19   Alpha:  4   Beta:  1
 Number of excitations:                4744530
 Spin case 20   Alpha:  4   Beta:  1
 Number of excitations:               20891712
 Spin case 21   Alpha:  3   Beta:  2
 Number of excitations:               19150754
 Spin case 22   Alpha:  4   Beta:  1
 Number of excitations:                4428430
 Number of                     5 -fold excitations:              998631680
 
 Memory requirements /Mbyte/: 
               Minimal        Optimal
 Real*8:      15638.0707     15638.0707
 Integer:      2582.3654
 Total:       18220.4361     18220.4361
 

 ************************ 2018-03-09 17:55:59 *************************
 Executing mrcc...

 **********************************************************************
 CCSDTQ(P) calculation                                                  
 
 
 OpenMP parallel version is running.
 Number of CPUs:  28
 Allocation of15638.1 Mbytes of memory...
 Number of spinorbitals: 236
 Number of alpha electrons:  4
 Number of beta  electrons:  2
 Number of active particles:                   120
 Number of active holes:                         0
 Spin multiplicity: 2
 z-component of spin:  1.0
 Spatial symmetry: 1
 Convergence criterion:  1.0E-07
 Construction of occupation graphs...
 Number of 0-fold excitations: 1
 Number of 1-fold excitations: 138
 Number of 2-fold excitations: 22255
 Number of 3-fold excitations: 1701444
 Number of 4-fold excitations: 61750286
 Total number of determinants: 63474124
 Calculation of coupling coefficients...
 Initial cluster amplitudes are read from unit 16.
 Length of intermediate file (Mbytes):    9816.8
 Reading integral list from unit 55...
 Sorting integrals...
 Sorting integrals...
 Sorting integrals...
 Sorting integrals...
 Energy of reference determinant [au]:     -14.824119533858
 Calculation of MP denominators...
 
 Starting CC iteration...
 ======================================================================
 Norm of residual vector:     0.00447376
 CPU time [min]:   508.051                   Wall time [min]:    24.438
 
 Iteration  1  CC energy:   -14.91266769  Energy decrease:   5.3468E-13
 ======================================================================
 Norm of residual vector:     0.00063517
 CPU time [min]:   991.765                   Wall time [min]:    44.866
 
 Iteration  2  CC energy:   -14.91266743  Energy decrease:   0.00000026
 ======================================================================
 Norm of residual vector:     0.00009131
 CPU time [min]:  1457.821                   Wall time [min]:    64.346
 
 Iteration  3  CC energy:   -14.91266798  Energy decrease:   0.00000055
 ======================================================================
 Norm of residual vector:     0.00001541
 CPU time [min]:  1909.800                   Wall time [min]:    83.666
 
 Iteration  4  CC energy:   -14.91266839  Energy decrease:   0.00000041
 ======================================================================
 Norm of residual vector:     0.00000419
 CPU time [min]:  2387.129                   Wall time [min]:   103.544
 
 Iteration  5  CC energy:   -14.91266861  Energy decrease:   0.00000022
 ======================================================================
 Norm of residual vector:     0.00000157
 CPU time [min]:  2847.154                   Wall time [min]:   123.211
 
 Iteration  6  CC energy:   -14.91266866  Energy decrease:   0.00000005
 ======================================================================
 Norm of residual vector:     0.00000048
 CPU time [min]:  3325.555                   Wall time [min]:   145.818
 
 Iteration  7  CC energy:   -14.91266866  Energy decrease:   5.0342E-10
 ======================================================================
 Norm of residual vector:     0.00000022
 CPU time [min]:  3793.480                   Wall time [min]:   165.836
 
 Iteration  8  CC energy:   -14.91266866  Energy decrease:   2.2239E-09
 ======================================================================
 Norm of residual vector:     0.00000009
 CPU time [min]:  4235.109                   Wall time [min]:   184.251
 
 Iteration  9  CC energy:   -14.91266866  Energy decrease:   1.9737E-10
 ======================================================================
 
 Iteration has converged in  9 steps.
 
 Final results:
 Total CCSDTQ energy [au]:           -14.912668662495
 
 Perturbative corrections are calculated...
 ======================================================================
 Spin case  1   Alpha:  3   Beta:  2
 Number of excitations:        30324275
 CPU time [min]:  4595.247                   Wall time [min]:   201.343
 ======================================================================
 Spin case  2   Alpha:  4   Beta:  1
 Number of excitations:        7312131
 CPU time [min]:  4701.119                   Wall time [min]:   205.554
 ======================================================================
 Spin case  3   Alpha:  3   Beta:  2
 Number of excitations:        84846346
 CPU time [min]:  5470.853                   Wall time [min]:   235.956
 ======================================================================
 Spin case  4   Alpha:  3   Beta:  2
 Number of excitations:        57593654
 CPU time [min]:  5964.075                   Wall time [min]:   257.019
 ======================================================================
 Spin case  5   Alpha:  4   Beta:  1
 Number of excitations:        27766584
 CPU time [min]:  6425.218                   Wall time [min]:   274.882
 ======================================================================
 Spin case  6   Alpha:  4   Beta:  1
 Number of excitations:        6824873
 CPU time [min]:  6523.829                   Wall time [min]:   279.083
 ======================================================================
 Spin case  7   Alpha:  3   Beta:  2
 Number of excitations:        76246045
 CPU time [min]:  7208.789                   Wall time [min]:   306.549
 ======================================================================
 Spin case  8   Alpha:  3   Beta:  2
 Number of excitations:        161202532
 CPU time [min]:  8796.876                   Wall time [min]:   369.690
 ======================================================================
 Spin case  9   Alpha:  3   Beta:  2
 Number of excitations:        26390077
 CPU time [min]:  9024.715                   Wall time [min]:   379.437
 ======================================================================
 Spin case 10   Alpha:  4   Beta:  1
 Number of excitations:        38112579
 CPU time [min]:  9628.647                   Wall time [min]:   403.360
 ======================================================================
 Spin case 11   Alpha:  4   Beta:  1
 Number of excitations:        25918936
 CPU time [min]: 10045.817                   Wall time [min]:   420.804
 ======================================================================
 Spin case 12   Alpha:  3   Beta:  2
 Number of excitations:        22002998
 CPU time [min]: 10224.601                   Wall time [min]:   428.703
 ======================================================================
 Spin case 13   Alpha:  3   Beta:  2
 Number of excitations:        144888682
 CPU time [min]: 11525.398                   Wall time [min]:   479.616
 ======================================================================
 Spin case 14   Alpha:  3   Beta:  2
 Number of excitations:        73857918
 CPU time [min]: 12209.799                   Wall time [min]:   508.272
 ======================================================================
 Spin case 15   Alpha:  4   Beta:  1
 Number of excitations:        22379760
 CPU time [min]: 12562.143                   Wall time [min]:   523.163
 ======================================================================
 Spin case 16   Alpha:  4   Beta:  1
 Number of excitations:        35580241
 CPU time [min]: 13120.674                   Wall time [min]:   545.687
 ======================================================================
 Spin case 17   Alpha:  3   Beta:  2
 Number of excitations:        41792156
 CPU time [min]: 13466.019                   Wall time [min]:   560.066
 ======================================================================
 Spin case 18   Alpha:  3   Beta:  2
 Number of excitations:        66376467
 CPU time [min]: 14048.052                   Wall time [min]:   583.746
 ======================================================================
 Spin case 19   Alpha:  4   Beta:  1
 Number of excitations:        4744530
 CPU time [min]: 14115.752                   Wall time [min]:   586.474
 ======================================================================
 Spin case 20   Alpha:  4   Beta:  1
 Number of excitations:        20891712
 CPU time [min]: 14428.844                   Wall time [min]:   599.438
 ======================================================================
 Spin case 21   Alpha:  3   Beta:  2
 Number of excitations:        19150754
 CPU time [min]: 14582.573                   Wall time [min]:   605.817
 ======================================================================
 Spin case 22   Alpha:  4   Beta:  1
 Number of excitations:        4428430
 CPU time [min]: 14646.499                   Wall time [min]:   608.614
 ======================================================================
 Number of 5-fold excitations: 998631680
 
 T_3^+ contribution:              -0.000000000427
 T_1^+ * T_2^+ contribution:       0.000000000015
 T_1^+ * <ab||ij> contribution:    0.000000000011
 T_2^+ * f_ai contribution:        0.000000000000
 T_2^+ contribution:              -0.000000000710
 
 CPU time [min]: 14653.739                   Wall time [min]:   609.333
 
 Total CCSDTQ[P] energy [au]:        -14.912668663617
 Total CCSDTQ(P)/A energy [au]:      -14.912668663617
 Total CCSDTQ(P)/B energy [au]:      -14.912668663622

 ************************ 2018-03-10 04:05:33 *************************
 Executing goldstone...

 Generation of MRCC equations in terms of H and T...
 Generation of antisymmetrized Goldstone diagrams...
 Number of diagrams in T^1 equations:    15
 Number of diagrams in T^2 equations:    38
 Number of diagrams in T^3 equations:    54
 Number of diagrams in T^4 equations:    81
 Number of diagrams in T^5 equations:   102
 Number of diagrams in T^6 equations:    14
 Translation of diagrams to factorized equations...
 Number of restricted diagrams in T^1 equations:     78
 Number of restricted diagrams in T^2 equations:    344
 Number of restricted diagrams in T^3 equations:    892
 Number of restricted diagrams in T^4 equations:   2035
 Number of restricted diagrams in T^5 equations:   3948
 Number of restricted diagrams in T^6 equations:    730
 Optimizing intermediate calculation...
 Number of floating-point operations per iteration step:   6.9298E+14
 Probable CPU time per iteration step (hours):   6929.81
 Required memory (Mbytes):   77894.6
 Number of intermediates:                                1714
 Number of intermediates to be stored:                    681
 Length of intermediate file (Mbytes): 1106202.9

 ************************ 2018-03-10 04:05:38 *************************
 Executing xmrcc...

 **********************************************************************
 MRCC(                     6 ) calculation 
 
 
 Allocation of****** Mbytes of memory...
 Number of spinorbitals:                   236
 Number of alpha electrons:                        4
 Number of beta electrons:                         2
 Number of active particles:                   120
 Number of active holes:                         0
 Spin multiplicity:                     2
 z-component of spin:  1.0
 Spatial symmetry:                      1
 Convergence criterion:  1.0E-07
 Construction of occupation graphs...
 Number of                     0 -fold excitations:                      1
 Number of                     1 -fold excitations:                    138
 Number of                     2 -fold excitations:                  22255
 Number of                     3 -fold excitations:                1701444
 Number of                     4 -fold excitations:               61750286
 Number of                     5 -fold excitations:              998631680
 Total number of configurations:             1062105804
 Calculation of coupling coefficients...
 Length of intermediate file (Mbytes):  577203.2
 
 ======================================================================
 
 Spin case  1   Alpha:  4   Beta:  2
 Number of excitations:              107875000
 Spin case  2   Alpha:  4   Beta:  2
 Number of excitations:              409018638
 Spin case  3   Alpha:  4   Beta:  2
 Number of excitations:              204784438
 Spin case  4   Alpha:  4   Beta:  2
 Number of excitations:              560824847
 Spin case  5   Alpha:  4   Beta:  2
 Number of excitations:              776544516
 Spin case  6   Alpha:  4   Beta:  2
 Number of excitations:               93856126
 Spin case  7   Alpha:  4   Beta:  2
 Number of excitations:              329477000
 Spin case  8   Alpha:  4   Beta:  2
 Number of excitations:             1064879408
 Spin case  9   Alpha:  4   Beta:  2
 Number of excitations:              355895174
 Spin case 10   Alpha:  4   Beta:  2
 Number of excitations:               69968359
 Spin case 11   Alpha:  4   Beta:  2
 Number of excitations:              625565720
 Spin case 12   Alpha:  4   Beta:  2
 Number of excitations:              488012793
 Spin case 13   Alpha:  4   Beta:  2
 Number of excitations:              132831382
 Spin case 14   Alpha:  4   Beta:  2
 Number of excitations:              286693564
 Spin case 15   Alpha:  4   Beta:  2
 Number of excitations:               60876699
 Number of                     6 -fold excitations:             5567103664
 
 Memory requirements /Mbyte/: 
               Minimal        Optimal
 Real*8:     319374.6327    319374.6327
 Integer:      2595.2566
 Total:      321969.8893    321969.8893
 

 ************************ 2018-03-10 04:07:49 *************************
 Executing mrcc...

 **********************************************************************
 CC(5)(6) calculation                                                   
 
 
 OpenMP parallel version is running.
 Number of CPUs:  28
 Allocation of******* Mbytes of memory...
 Number of spinorbitals: 236
 Number of alpha electrons:  4
 Number of beta  electrons:  2
 Number of active particles:                   120
 Number of active holes:                         0
 Spin multiplicity: 2
 z-component of spin:  1.0
 Spatial symmetry: 1
 Convergence criterion:  1.0E-07
 Construction of occupation graphs...
 Number of 0-fold excitations: 1
 Number of 1-fold excitations: 138
 Number of 2-fold excitations: 22255
 Number of 3-fold excitations: 1701444
 Number of 4-fold excitations: 61750286
 Number of 5-fold excitations: 998631680
 Total number of determinants: 1062105804
 Calculation of coupling coefficients...
 Initial cluster amplitudes are read from unit 16.
 Length of intermediate file (Mbytes):  577203.2
 Reading integral list from unit 55...
 Sorting integrals...
 Sorting integrals...
 Sorting integrals...
 Sorting integrals...
 Energy of reference determinant [au]:     -14.824119533858
 Calculation of MP denominators...
 
 Starting CC iteration...
 ======================================================================
 Norm of residual vector:     0.00011992
 CPU time [min]: 17099.153                   Wall time [min]:  1239.537
 
 Iteration  1  CC energy:   -14.91266866  Energy decrease:   1.2552E-10
 ======================================================================
 Norm of residual vector:     0.00001694
 CPU time [min]: 35293.247                   Wall time [min]:  2639.845
 
 Iteration  2  CC energy:   -14.91266866  Energy decrease:   7.4825E-11
 ======================================================================
 Norm of residual vector:     0.00000183
 CPU time [min]: 53940.990                   Wall time [min]:  4119.833
 
 Iteration  3  CC energy:   -14.91266866  Energy decrease:   1.1004E-09
 ======================================================================
 Norm of residual vector:     0.00000020
 CPU time [min]: 72624.106                   Wall time [min]:  5582.222
 
 Iteration  4  CC energy:   -14.91266866  Energy decrease:   5.6154E-10
 ======================================================================
 Norm of residual vector:     0.00000003
 CPU time [min]: 91029.371                   Wall time [min]:  7041.936
 
 Iteration  5  CC energy:   -14.91266866  Energy decrease:   2.0937E-10
 ======================================================================
 
 Iteration has converged in  5 steps.
 
 Final results:
 Total CCSDTQP energy [au]:          -14.912668664567
forrtl: severe (36): attempt to access non-existent record, unit 13, file /project1/ayerslab/nike/Li2_c/3z/fort.13
 
 Fatal error in mrcc.
 Program will stop.
 
 ************************ 2018-03-15 15:37:39 *************************
                   Error at the termination of mrcc.
 **********************************************************************
--executable dmrcc finished with status   256 in   512683.01 seconds (walltime).
  This computation required                       512761.38 seconds (walltime).
--- SharcNET Job Epilogue ---
Job completed successfully.
               jobid: 1528010
               resid: 3009871
         exit status: 0
      allocated time: 509163
           user time: 3824440
         system time: 2853090
peak rss=413961916416; peak vsz=413961916416 (bytes)
atime=509163; utime=3824440; stime=2853090; exit=0
