 --invoking executable--
/home/nike/cfour_v2.00beta/bin/xjoda


   *************************************************************************
         <<<     CCCCCC     CCCCCC   |||     CCCCCC     CCCCCC   >>>
       <<<      CCC        CCC       |||    CCC        CCC         >>>
      <<<      CCC        CCC        |||   CCC        CCC            >>>
    <<<        CCC        CCC        |||   CCC        CCC              >>>
      <<<      CCC        CCC        |||   CCC        CCC            >>>
       <<<      CCC        CCC       |||    CCC        CCC         >>>
         <<<     CCCCCC     CCCCCC   |||     CCCCCC     CCCCCC   >>>
   *************************************************************************

     ****************************************************************
     * CFOUR Coupled-Cluster techniques for Computational Chemistry *
     ****************************************************************
 

   Department of Chemistry                Institut fuer Physikalische Chemie
   University of Texas at Austin          Universitaet Mainz
   Austin, TX  78712, USA                 D-55099 Mainz, Germany
 
                       Version 2.00beta
 
                     wob119                                            
                     Sun Apr  1 03:03:12 EDT 2018                      
                     integer*8 version is running
 
********************************************************************************
*                          Input from ZMAT file                                *
********************************************************************************
TITLE                                                                           
BE                                                                              
                                                                                
*ACES2(CALC=CCSD                                                                
EXCITE=EOMEE                                                                    
ESTATE_SYM=6/0/0/0/0/0/0/0a                                                     
#INPUT_MRCC=OFF                                                                 
#CC_PROG=MRCC                                                                   
XFORM_TOL=18                                                                    
SAVE_INTS=ON                                                                    
SCF_EXPORDER=6                                                                  
SCF_EXPSTART=5                                                                  
#SCF_DAMPING=1000                                                               
SCF_EXTRAPOLATION=ON                                                            
SCF_CONV=10                                                                     
SCF_MAXCYC=9999                                                                 
CC_CONV=10                                                                      
CC_MAXCYC=999                                                                   
ESTATE_TOL=6                                                                    
ESTATE_MAXCYC=99                                                                
T3_EXTRAPOL=ON                                                                  
REFERENCE=RHF                                                                   
CHARGE=+0                                                                       
MULT=1                                                                          
ABCDTYPE=STANDARD                                                               
OCCUPATION=2-0-0-0-0-0-0-0                                                      
MEM=32                                                                          
MEM_UNIT=GB                                                                     
BASIS=SPECIAL)                                                                  
                                                                                
BE:aCVDZ-EMSL                                                                   
                                                                                
********************************************************************************
  @GTFLGS-W, Keyword #INPUT_MRCC not known and is ignored.
  @GTFLGS-W, Keyword #CC_PROG not known and is ignored.
  @GTFLGS-W, Keyword #SCF_DAMPING not known and is ignored.
  @GTFLGS-W, Keyword ESTATE_TOL not known and is ignored.
    -------------------------------------------------------------------
                    CFOUR Control Parameters 
    -------------------------------------------------------------------
        External           Internal           Value            Units
          Name               Name
    -------------------------------------------------------------------
       ABCDTYPE             IABCDT         STANDARD     [  0]   ***   
       ANHARMONIC           IANHAR         OFF          [  0]   ***   
       ANH_ALGORIT          IANALG         STANDARD     [  0]   ***   
       ANH_DERIVAT          IANDER         SECOND       [  1]   ***   
       ANH_STEPSIZ          ICUBST             50000          x 10-6  
       ANH_SYMMETR          IANHSM         ABELIAN      [  0]   ***   
       AO_LADDERS           IAOLAD         SINGLEPASS   [  1]   ***   
       BASIS                IBASIS         SPECIAL      [  0]   ***   
       BREIT                IBREIT         OFF          [  0]   ***   
       BRUCK_CONV           IBRTOL          10D-  4             ***   
       BRUECKNER            IBRKNR             OFF      [  0]   ***   
       BUFFERSIZE           IBUFFS            600               ***   
       CACHE_RECS           ICHREC             10               ***   
       CALCLEVEL            ICLLVL           CCSD       [ 10]   ***   
       CCORBOPT             ICCORB             OFF      [  0] x 0.01  
       CC_CONV              ICCCNV          10D- 10             ***   
       CC_EXPORDER          ICCEOR              5               ***   
       CC_EXTRAPOL          ICCEXT             DIIS     [  1]   ***   
       CC_MAXCYC            ICCCYC            999              cycles 
       CC_PROGRAM           ICCPRO         VCC          [  0]   ***   
       CHARGE               ICHRGE              0               ***   
       CHOLESKY             ICHOLE         OFF          [  0]   ***   
       CIS_CONV             ICISTL              5               ***   
       COMM_SIZE            IPSIZE            ***               ***   
       CONSTANT             ICONST         OLD          [  1]   ***   
       CONTINUUM            ICONTU         NONE         [  0]   ***   
       CONTRACTION          ICNTYP          GENERAL     [  1]   ***   
       COORDINATES          ICOORD         INTERNAL     [  0]   ***   
       CPHF_CONVER          ICPHFT          10D- 16             ***   
       CPHF_MAXCYC          ICPHFC             64              cycles 
       CUBIC                ICUBIC         OFF          [  0]   ***   
       CURVILINEAR          ICURVY            OFF       [  0]   ***   
       DBOC                 IDBOC          OFF          [  0]   ***   
       DCT                  IDCT           OFF          [  0]   ***   
       DERIV_LEV            IDRLVL            ZERO      [  0]   ***   
       DIAG_MRCC            IEOMST          10D-  0             ***   
       DIFF_TYPE            IDIFTY         RELAXED      [  0]   ***   
       DIRECT               IDIRCT         OFF          [  0]   ***   
       DROPMO               IDRPMO      NONE         
       ECP                  IECP           OFF          [  0]   ***   
       EIGENVECTOR          IVEC                1               ***   
       EL_ANHARM            IELANH         OFF          [  0]   ***   
       EOMFOLLOW            IEOMSR         ENERGY       [  0]   ***   
       EOM_MRCC             IMRCCE         NEW          [  1]   ***   
       EOM_NONIT            EOMNON         OFF          [  0]   ***   
       EOM_NSING            IEOMSI          10D-  0             ***   
       EOM_NSTATES          IMRCCD         DAVIDSON     [  0]   ***   
       EOM_NTRIP            IEOMTR          10D-  0             ***   
       EOM_ORDER            IEXORD         ENERGY       [  0]   ***   
       ESTATE_CONV          IEXTOL          10D-  5             ***   
       ESTATE_DIAG          IEXDIG         ITERATIVE    [  0]   ***   
       ESTATE_LOCK          IESLOC         ON           [  1]   ***   
       ESTATE_MAXC          IEXMXC             99               ***   
       ESTATE_PROP          IEXPRP         OFF          [  0]   ***   
       ESTATE_SYM           IEXSYM   6,  0,  0,  0,  0,  0,  0,  0,
       EVAL_HESS            IRECAL              0            # of cyc.
       EXCITATION           IEXCIT              0               ***   
       EXCITE               IEXCIT         EOMEE        [  3]   ***   
       FCGRADNEW            IFCGNW         OFF          [  0]   ***   
       FC_FIELD             IFINFC              0             x 10-6  
       FD_CALTYPE           IFDCAL         GRADONLY     [  0]   ***   
       FD_PROJECT           IFDPRJ         OFF          [  1]   ***   
       FD_STEPSIZE          IDISFD              0            10-4 bohr
       FD_USEGROUP          IFDGRP         FULL         [  0]   ***   
       FILE_RECSIZ          IFLREC              4096           words  
       FINITE_PERT          IFIPER              0             x 10-6  
       FIXGEOM              IFIXGM         OFF          [  0]   ***   
       FOCK                 IFOCK          AO           [  1]   ***   
       FREQ_ALGORI          IVIALG         STANDARD     [  0]   ***   
       FROZEN_CORE          IFROCO         OFF          [  0]   ***   
       FROZEN_VIRT          IFROVI         OFF          [  0]   ***   
       GAMMA_ABCD           IGABCD         STORE        [  0]   ***   
       GAMMA_ABCI           IGABCI         STORE        [  0]   ***   
       GENBAS_1             IGNBS1              0               ***   
       GENBAS_2             IGNBS2              0               ***   
       GENBAS_3             IGNBS3              0               ***   
       GENBAS_4             IGNBS4              0               ***   
       GEO_CONV             ICONTL              5              H/bohr 
       GEO_MAXCYC           IOPTCY             50               ***   
       GEO_MAXSTEP          IMXSTP            300            millibohr
       GEO_METHOD           INR            SINGLE_POINT [  5]   ***   
       GIAO                 IGIAO          OFF          [  1]   ***   
       GIMIC                IGIMIC         OFF          [  0]   ***   
       GRID                 IGRID          OFF          [  0]   ***   
       GRID_ALGO            IGALGO         SERIAL       [  0]   ***   
       GUESS                IGUESS            MOREAD    [  0]   ***   
       HBAR                 IHBAR               ON      [  1]   ***   
       HESS_TYPE            IHESTP         SCF          [  0]   ***   
       HF2_FILE             IHF2Fl         USE          [  1]   ***   
       HFSTABILITY          ISTABL         OFF          [  0]   ***   
       INCORE               INCORE             OFF      [  0]   ***   
       INPUT_MRCC           IMRCC          ON           [  1]   ***   
       INTEGRALS            INTTYP             VMOL     [  1]   ***   
       JODA_PRINT           IJPRNT              0               ***   
       LINDEP_TOL           ILINDP              8               ***   
       LINEQ_CONV           IZTACN          10D-  7           cycles  
       LINEQ_EXPOR          ILMAXD              5               ***   
       LINEQ_MAXCY          ILMAXC             50               ***   
       LINEQ_TYPE           ILTYPE         DIIS         [  1]   ***   
       LOCK_ORBOCC          ILOCOC             OFF      [  0]   ***   
       MEMORY_SIZE          IMEMSZ         *********           words  
       MEM_UNIT             IMEMU          GB           [  3]   ***   
       MRCC                 IMRCCC         OFF          [  0]   ***   
       MULTIPLICTY          IMULTP              1               ***   
       NEGEVAL              IDIE             ABORT      [  0]   ***   
       NEWNORM              INEWNO         OFF          [  0]   ***   
       NON-HF               INONHF             OFF      [  0]   ***   
       NTOP_TAMP            ITOPT2             15               ***   
       NUC_MODEL            INUCMO         POINT        [  0]   ***   
       OCCUPATION           IOCCU    2,  0,  0,  0,  0,  0,  0,  0,
       OPEN-SHELL           IOPEN          SPIN-ORBITAL [  0]   ***   
       ORBITALS             IORBTP           STANDARD   [  0]   ***   
       PARALLEL             IPARAL         ON           [  1]   ***   
       PARA_INT             IPINTS         ON           [  1]   ***   
       PARA_PRINT           IPPRIN              0               ***   
       PERT_ORB             IPTORB         STANDARD     [  0]   ***   
       POINTS               IGRDFD              0               ***   
       PRINT                IPRNT               0               ***   
       PROPS                IPROPS             OFF      [  0]   ***   
       PROP_INTEGR          IINTYP         INTERNAL     [  0]   ***   
       PSI                  IPSI           OFF          [  0]   ***   
       QUARTIC              IQUART         OFF          [  0]   ***   
       RAMAN_INT            IRAMIN         OFF          [  0]   ***   
       RAMAN_ORB            IRAMRE         UNRELAXED    [  0]   ***   
       RDO                  IRDOFM             OFF      [  0]   ***   
       REFERENCE            IREFNC             RHF      [  0]   ***   
       RELATIVIST           IRELAT         OFF          [  0]   ***   
       RELAX_DENS           IRDENS             OFF      [  0]   ***   
       RESET_FLAGS          IRESET             OFF      [  0]   ***   
       RESTART_CC           ICCRES         OFF          [  0]   ***   
       ROT_EVEC             ROTVEC              0               ***   
       SAVE_INTS            ISVINT              ON      [  1]   ***   
       SCALE_ON             ISTCRT              0               ***   
       SCF_CONV             ISCFCV          10D- 10             ***   
       SCF_DAMPING          IDAMP               0             x 10-3  
       SCF_EXPORDE          IRPPOR              6               ***   
       SCF_EXPSTAR          IRPPLS              5               ***   
       SCF_EXTRAPO          IRPP                ON      [  1]   ***   
       SCF_MAXCYC           ISCFCY            ***              cycles 
       SCF_NOSTOP           ISCFST         OFF          [  0]   ***   
       SCF_PRINT            ISCFPR              0               ***   
       SD_FIELD             IFINSD              0             x 10-6  
       SEQUENCE             ISEQUE         OFF          [  0]   ***   
       SOPERT               IPERSO         OFF          [  0]   ***   
       SPHERICAL            IDFGHI             ON       [  1]   ***   
       SPINORBIT            ISOCAL         OFF          [  0]   ***   
       SPINROTATIO          ISRCON         OFF          [  0]   ***   
       SPIN_FLIP            ISPFLP         OFF          [  0]   ***   
       SPIN_ORBIT           ISPORB         OFF          [  0]   ***   
       SPIN_SCAL            ISCSMP         OFF          [  0]   ***   
       SUBGROUP             ISUBGP         DEFAULT      [  0]   ***   
       SUBGRPAXIS           ISBXYZ         X            [  0]   ***   
       SYMMETRY             ISYM             ON         [  0]   ***   
       SYM_CHECK            ISYMCK         OVERRIDE     [  1]   ***   
       T3_EXTRAPOL          IT3EXT         ON           [  1]   ***   
       TAMP_SUM             IEVERY              5               ***   
       TESTSUITE            ITESTS         OFF          [  0]   ***   
       THERMOCH             ITHERM         OFF          [  0]   ***   
       TOL_CHOLESK          ITOLCH          10D-  4             ***   
       TRANGRAD             IRESRM         OFF          [  0]   ***   
       TRANS_INV            ITRAIN         USE          [  0]   ***   
       TREAT_PERT           ITREAT         SIMULTANEOUS [  0]   ***   
       UIJ_THRESHO          IUIJTH              1               ***   
       UNITS                IUNITS         ANGSTROM     [  0]   ***   
       UNOS                 IUNOS          OFF          [  0]   ***   
       UPDATE_HESS          IHUPDT         ON           [  1]   ***   
       VIBPHASE             ISETPH         STANDARD     [  0]   ***   
       VIBRATION            IVIB              NO        [  0]   ***   
       VIB_ALGORIT          IGEALG         STANDARD     [  0]   ***   
       VNATORB              IVNORB         OFF          [  0]   ***   
       VTRAN                IVTRAN         FULL/PARTIAL [  0]   ***   
       XFIELD               IXEFLD              0             x 10-6  
       XFORM_TOL            IXFTOL          10D- 18             ***   
       YFIELD               IYEFLD              0             x 10-6  
       ZFIELD               IZEFLD              0             x 10-6  
    -------------------------------------------------------------------
   1 entries found in Z-matrix 
   Job Title : TITLE                                                                           
  1  BE         4     9.01218
 factor:   60.1997200000000     
   Rotational constants (in cm-1): 

   Rotational constants (in MHz): 

********************************************************************************
   The full molecular point group is I h .
   The largest Abelian subgroup of the full molecular point group is D2h .
   The computational point group is D2h .
********************************************************************************
  @GTFLGS-W, Keyword #INPUT_MRCC not known and is ignored.
  @GTFLGS-W, Keyword #CC_PROG not known and is ignored.
  @GTFLGS-W, Keyword #SCF_DAMPING not known and is ignored.
  @GTFLGS-W, Keyword ESTATE_TOL not known and is ignored.
  There are   27 basis functions.
 @GEOPT-W, Archive file not created for single-point calculation.
  @CHECKOUT-I, Total execution time (CPU/WALL):        0.21/       2.03 seconds.
--executable xjoda finished with status     0 in        2.12 seconds (walltime).
 --invoking executable--
/home/nike/cfour_v2.00beta/bin/xvmol
 Serial version of molecule started
********************************************************************************
                    Input from MOL file
********************************************************************************
INTGRL        1    0    1    0    0    0    0    0    0                         
         *** CFOUR Program System (Release V0.1) ***                            
TITLE                                                                           
    1    3 X  Y   Z   0.10E-08              0    0                              
   9999.00      3.00                                                            
          4.00000000    1    3    1    1    1                                   
BE#1   0.000000000000000   0.000000000000000   0.000000000000000                
   11    5                                                                      
   2940.00000000000       6.800000000000000E-004 -1.230000000000000E-004        
  0.000000000000000E+000  0.000000000000000E+000  0.000000000000000E+000        
   441.200000000000       5.236000000000000E-003 -9.660000000000000E-004        
  0.000000000000000E+000  0.000000000000000E+000  0.000000000000000E+000        
   100.500000000000       2.660600000000000E-002 -4.831000000000000E-003        
  0.000000000000000E+000  0.000000000000000E+000  0.000000000000000E+000        
   28.4300000000000       9.999300000000000E-002 -1.931400000000000E-002        
  0.000000000000000E+000  0.000000000000000E+000  0.000000000000000E+000        
   9.16900000000000       0.269702000000000      -5.328000000000000E-002        
  0.000000000000000E+000  0.000000000000000E+000  0.000000000000000E+000        
   3.19600000000000       0.451469000000000      -0.120723000000000             
  0.000000000000000E+000  0.000000000000000E+000  0.000000000000000E+000        
   1.15900000000000       0.295074000000000      -0.133435000000000             
  0.000000000000000E+000  0.000000000000000E+000  0.000000000000000E+000        
  0.181100000000000       1.258700000000000E-002  0.530767000000000             
  0.000000000000000E+000  0.000000000000000E+000  0.000000000000000E+000        
  5.890000000000000E-002 -3.756000000000000E-003  0.580117000000000             
   1.00000000000000       0.000000000000000E+000  0.000000000000000E+000        
   1.86000000000000       0.000000000000000E+000  0.000000000000000E+000        
  0.000000000000000E+000   1.00000000000000       0.000000000000000E+000        
  1.877000000000000E-002  0.000000000000000E+000  0.000000000000000E+000        
  0.000000000000000E+000  0.000000000000000E+000   1.00000000000000             
    6    4                                                                      
   3.61900000000000       2.911100000000000E-002  0.000000000000000E+000        
  0.000000000000000E+000  0.000000000000000E+000                                
  0.711000000000000       0.169365000000000       0.000000000000000E+000        
  0.000000000000000E+000  0.000000000000000E+000                                
  0.195100000000000       0.513458000000000       0.000000000000000E+000        
  0.000000000000000E+000  0.000000000000000E+000                                
  6.018000000000000E-002  0.479338000000000        1.00000000000000             
  0.000000000000000E+000  0.000000000000000E+000                                
   6.16300000000000       0.000000000000000E+000  0.000000000000000E+000        
   1.00000000000000       0.000000000000000E+000                                
  8.500000000000001E-003  0.000000000000000E+000  0.000000000000000E+000        
  0.000000000000000E+000   1.00000000000000                                     
    2    2                                                                      
  0.238000000000000        1.00000000000000       0.000000000000000E+000        
  7.400000000000000E-002  0.000000000000000E+000   1.00000000000000             
FINISH                                                                          
 
********************************************************************************
 One- and two-electron integrals over symmetry-adapted AOs are calculated.

  Spherical harmonics are used.
  
  Integrals less than  0.10E-13 are neglected.

  Nuclear repulsion energy :    0.0000000000 a.u.
  required memory for a1 array                5029908  words 
  required memory for a2 array                2103164  words 
 @GETMEM-I,  Allocated      69 MB of main memory.
  @MOLECU-I, One electron integrals (CPU/WALL):        0.02/       0.05 seconds.
  @TWOEL-I,        634 integrals of symmetry type  I I I I
  @TWOEL-I,       2993 integrals of symmetry type  I J I J
  @TWOEL-I,       2170 integrals of symmetry type  I I J J
  @TWOEL-I,       3304 integrals of symmetry type  I J K L
  @TWOEL-I, Total number of 2-e integrals       9101.
  @MOLECU-I, Two electron integrals (CPU/WALL):        0.01/       0.33 seconds.
  @CHECKOUT-I, Total execution time (CPU/WALL):        0.04/       0.88 seconds.
--executable xvmol finished with status     0 in        1.03 seconds (walltime).
 --invoking executable--
/home/nike/cfour_v2.00beta/bin/xvmol2ja
 @GETMEM-I,  Allocated   30517 MB of main memory.
  @CHECKOUT-I, Total execution time (CPU/WALL):        0.00/       0.44 seconds.
--executable xvmol2ja finished with status     0 in        0.74 seconds (walltime).
 --invoking executable--
/home/nike/cfour_v2.00beta/bin/xvscf
  There are   27 functions in the AO basis.

  There are 8 irreducible representations.

       Irrep        # of functions
         1                  9
         2                  4
         3                  4
         4                  2
         5                  4
         6                  2
         7                  2
         8                  0


  Parameters for SCF calculation: 
        SCF reference function:  RHF  
  Maximum number of iterations: 9999
     Full symmetry point group: I h 
     Computational point group: D2h 
        Initial density matrix: MOREAD                 
     SCF convergence tolerance: 10**(-10)
  DIIS convergence acceleration:  ON
          Latest start for DIIS:   5
                     DIIS order:   6

     Alpha population by irrep:   2    0    0    0    0    0    0    0
      Beta population by irrep:   2    0    0    0    0    0    0    0


  Memory information:      69190 words required.
  Fock matrices are constructed from AO integral file.
 @GETMEM-I,  Allocated       0 MB of main memory.
  Initialization and symmetry analysis required      0.002 seconds.

 total no. of electrons in initial guess :  0.000000000000000E+000
  --------------------------------------------------------------------
  Iteration         Total Energy            Largest Density Difference
  --------------------------------------------------------------------
       0             0.000000000000000              0.0000000000D+00
   current occupation vector 
     2  0  0  0  0  0  0  0
     2  0  0  0  0  0  0  0
       1           -14.151233336133243              0.1347543545D+02
   current occupation vector 
     2  0  0  0  0  0  0  0
     2  0  0  0  0  0  0  0
       2           -14.557216486151820              0.9351770979D+01
   current occupation vector 
     2  0  0  0  0  0  0  0
     2  0  0  0  0  0  0  0
       3           -14.571380591977906              0.1657144057D+01
   current occupation vector 
     2  0  0  0  0  0  0  0
     2  0  0  0  0  0  0  0
       4           -14.572373298291868              0.4302443030D+00
   current occupation vector 
     2  0  0  0  0  0  0  0
     2  0  0  0  0  0  0  0
       5           -14.572378872994898              0.8566363665D-02
   current occupation vector 
     2  0  0  0  0  0  0  0
     2  0  0  0  0  0  0  0
       6           -14.572379159924639              0.2715061449D-02
   current occupation vector 
     2  0  0  0  0  0  0  0
     2  0  0  0  0  0  0  0
       7           -14.572379159952931              0.7932224984D-04
   current occupation vector 
     2  0  0  0  0  0  0  0
     2  0  0  0  0  0  0  0
       8           -14.572379159952986              0.1542014958D-05
   current occupation vector 
     2  0  0  0  0  0  0  0
     2  0  0  0  0  0  0  0
       9           -14.572379159952968              0.4877398441D-07
   current occupation vector 
     2  0  0  0  0  0  0  0
     2  0  0  0  0  0  0  0
      10           -14.572379159952918              0.3975206830D-09
   current occupation vector 
     2  0  0  0  0  0  0  0
     2  0  0  0  0  0  0  0

  SCF has converged.

 Density matrix saved to file den.dat
 total electron number:   4.00000000000001     
     E(SCF)=       -14.572379159952970              0.5943162629D-13

  Eigenvector printing suppressed.

 @PUTMOS-I, Writing converged MOs to NEWMOS. 
 @PUTMOS-I, Symmetry   1 Full Blocks  2 Partial Blocksize   1
 @PUTMOS-I, Symmetry   2 Full Blocks  1 Partial Blocksize   0
 @PUTMOS-I, Symmetry   3 Full Blocks  1 Partial Blocksize   0
 @PUTMOS-I, Symmetry   4 Full Blocks  0 Partial Blocksize   2
 @PUTMOS-I, Symmetry   5 Full Blocks  1 Partial Blocksize   0
 @PUTMOS-I, Symmetry   6 Full Blocks  0 Partial Blocksize   2
 @PUTMOS-I, Symmetry   7 Full Blocks  0 Partial Blocksize   2
 @PUTMOS-I, Symmetry   8 Full Blocks  0 Partial Blocksize   0


 
  ORBITAL EIGENVALUES (ALPHA)  (1H = 27.2113838 eV)

       MO #        E(hartree)               E(eV)           FULLSYM    COMPSYM
       ----   --------------------   --------------------   -------   ---------
    1     1          -4.7332378166        -128.7979509374      Ag        Ag (1)
    2     2          -0.3093757069          -8.4185411046      Ag        Ag (1)
  +++++++++++++++++++++++++++++++++++++++++++++++++++++++++++++++++++++++++++++
    3    10           0.0167027002           0.4545035852     T1u       B2u (2)
    4    14           0.0167027002           0.4545035852     T1u       B3u (3)
    5    20           0.0167027002           0.4545035852     T1u       B1u (5)
    6     3           0.0486564616           1.3240096512      Ag        Ag (1)
    7    11           0.0697024802           1.8967009406     T1u       B2u (2)
    8    15           0.0697024802           1.8967009406     T1u       B3u (3)
    9    21           0.0697024802           1.8967009406     T1u       B1u (5)
   10     4           0.2262678244           6.1570606155      Hg        Ag (1)
   11    18           0.2262678244           6.1570606155      Hg       B1g (4)
   12    24           0.2262678244           6.1570606155      Hg       B3g (6)
   13    26           0.2262678244           6.1570606155      Hg       B2g (7)
   14     5           0.2262678244           6.1570606155      Hg        Ag (1)
   15     6           0.3590157225           9.7693146226      Ag        Ag (1)
   16    16           0.3630113876           9.8780421977     T1u       B2u (3)
   17    22           0.3630113876           9.8780421977     T1u       B3u (5)
   18    12           0.3630113876           9.8780421977     T1u       B1u (2)
   19     7           0.7960518322          21.6616719471      Hg        Ag (1)
   20     8           0.7960518322          21.6616719471      Hg        Ag (1)
   21    19           0.7960518322          21.6616719471      Hg       B1g (4)
   22    25           0.7960518322          21.6616719471      Hg       B3g (6)
   23    27           0.7960518322          21.6616719471      Hg       B2g (7)
   24     9           8.2091783052         223.3831017068      Ag        Ag (1)
   25    17          10.0192501747         272.6376620886     T1u       B2u (3)
   26    13          10.0192501747         272.6376620886     T1u       B3u (2)
   27    23          10.0192501747         272.6376620886     T1u       B1u (5)


  VSCF finished.

  @CHECKOUT-I, Total execution time (CPU/WALL):        0.02/       0.81 seconds.
--executable xvscf finished with status     0 in        0.91 seconds (walltime).
 --invoking executable--
/home/nike/cfour_v2.00beta/bin/xvtran
 @GETMEM-I,  Allocated   30517 MB of main memory.
  Full RHF integral transformation
  Transformation of IIII integrals :
  1 pass through the AO integral file was required.
         634 AO integrals were read.
         784 MO integrals were written to HF2.
  Transformation of IIJJ integrals :
  1 pass through the AO integral file was required.
        2170 AO integrals were read.
        2170 MO integrals were written to HF2.
  Transformation of IJIJ integrals :
  1 pass through the AO integral file was required.
        2993 AO integrals were read.
        2993 MO integrals were written to HF2.
  Transformation of IJKL integrals :
  1 pass through the AO integral file was required.
        3304 AO integrals were read.
        3304 MO integrals were written to HF2.
  Summary of active molecular orbitals: 
------------------------------------------------------------------------
 
  Index      Eigenvalue    Symmetry    Index      Eigenvalue    Symmetry
------------------------------------------------------------------------
     1        -4.7332378        1        15         0.0697025        3
     2        -0.3093757        1        16         0.3630114        3
     3         0.0486565        1        17        10.0192502        3
     4         0.2262678        1        18         0.2262678        4
     5         0.2262678        1        19         0.7960518        4
     6         0.3590157        1        20         0.0167027        5
     7         0.7960518        1        21         0.0697025        5
     8         0.7960518        1        22         0.3630114        5
     9         8.2091783        1        23        10.0192502        5
    10         0.0167027        2        24         0.2262678        6
    11         0.0697025        2        25         0.7960518        6
    12         0.3630114        2        26         0.2262678        7
    13        10.0192502        2        27         0.7960518        7
    14         0.0167027        3
------------------------------------------------------------------------
  @CHECKOUT-I, Total execution time (CPU/WALL):        0.01/       0.10 seconds.
--executable xvtran finished with status     0 in        0.13 seconds (walltime).
 --invoking executable--
/home/nike/cfour_v2.00beta/bin/xintprc
 @GETMEM-I,  Allocated   30517 MB of main memory.
  Processing integrals for CCSD calculation.
  @GMOIAA-I, Processing MO integrals for spin case AA.
  @GMOIAA-I, Generation of integral list completed.
                      TYPE                NUMBER
                      ----               --------
                      PPPP                  6743
                      PPPH                  2098
                      PPHH                   203
                      PHPH                   171
                      PHHH                    30
                      HHHH                     6

                     TOTAL                  9251

  @FORMT2-I, Second-order MP correlation energies:
            ------------------------------------------------
            E(SCF)                  =    -14.572379159953 a.u.
            E2(AA)                  =     -0.000308335463 a.u.
            E2(AB)                  =     -0.057152099685 a.u.
            E2(TOT)                 =     -0.057768770612 a.u.
            Total MP2 energy        =    -14.630147930564 a.u.
            ------------------------------------------------
   Largest T2 amplitudes for spin case AB:
       _       _                 _       _                 _       _
   i   j   a   b             i   j   a   b             i   j   a   b
-----------------------------------------------------------------------------
[  2   2  11  11]-0.06493 [  2   2  15  15]-0.06493 [  2   2  21  21]-0.06493
[  2   2   6   6]-0.03069 [  2   2  12  11]-0.02808 [  2   2  11  12]-0.02808
[  2   2  16  15]-0.02808 [  2   2  15  16]-0.02808 [  2   2  22  21]-0.02808
[  2   2  21  22]-0.02808 [  2   2  11  10]-0.02578 [  2   2  10  11]-0.02578
[  2   2  15  14]-0.02578 [  2   2  14  15]-0.02578 [  2   2  21  20]-0.02578
-----------------------------------------------------------------------------
   Norm of T2AB vector (      436 symmetry allowed elements):  0.1701551334.
-----------------------------------------------------------------------------
  @CHECKOUT-I, Total execution time (CPU/WALL):        0.02/       0.09 seconds.
--executable xintprc finished with status     0 in        0.19 seconds (walltime).
  calling xvcc 
 --invoking executable--
/home/nike/cfour_v2.00beta/bin/xvcc
 @GETMEM-I,  Allocated   30517 MB of main memory.
   CCSD energy will be calculated.
   The total correlation energy is -0.057768770612 a.u.
   The total correlation energy is -0.069911618432 a.u.
  Convergence information after     1 iterations: 
  Largest element of residual vector : -0.29236840E-01.
  Largest element of DIIS residual   : -0.29236840E-01.
   The total correlation energy is -0.074345491816 a.u.
  Convergence information after     2 iterations: 
  Largest element of residual vector : -0.15403427E-01.
  Largest element of DIIS residual   :  0.50013360E-02.
   The total correlation energy is -0.078799484133 a.u.
  Convergence information after     3 iterations: 
  Largest element of residual vector : -0.14025771E-02.
  Largest element of DIIS residual   : -0.59531386E-03.
   The total correlation energy is -0.079236807772 a.u.
  Convergence information after     4 iterations: 
  Largest element of residual vector : -0.24190769E-03.
  Largest element of DIIS residual   : -0.10763198E-03.
   The total correlation energy is -0.079302483671 a.u.
  Convergence information after     5 iterations: 
  Largest element of residual vector :  0.47840864E-04.
  Largest element of DIIS residual   : -0.16140634E-04.
   The total correlation energy is -0.079283014192 a.u.
  Convergence information after     6 iterations: 
  Largest element of residual vector : -0.10043067E-04.
  Largest element of DIIS residual   : -0.64073128E-05.
   The total correlation energy is -0.079285488896 a.u.
  Convergence information after     7 iterations: 
  Largest element of residual vector :  0.17182136E-05.
  Largest element of DIIS residual   :  0.22488591E-05.
   The total correlation energy is -0.079285356520 a.u.
  Convergence information after     8 iterations: 
  Largest element of residual vector :  0.85085992E-06.
  Largest element of DIIS residual   :  0.77812433E-06.
   The total correlation energy is -0.079285375059 a.u.
  Convergence information after     9 iterations: 
  Largest element of residual vector :  0.28411309E-06.
  Largest element of DIIS residual   :  0.13330843E-06.
   The total correlation energy is -0.079285359366 a.u.
  Convergence information after    10 iterations: 
  Largest element of residual vector :  0.42681666E-07.
  Largest element of DIIS residual   :  0.17377883E-07.
   The total correlation energy is -0.079285362996 a.u.
  Convergence information after    11 iterations: 
  Largest element of residual vector :  0.47550991E-08.
  Largest element of DIIS residual   : -0.30003638E-08.
   The total correlation energy is -0.079285362850 a.u.
  Convergence information after    12 iterations: 
  Largest element of residual vector : -0.17694632E-08.
  Largest element of DIIS residual   : -0.12720958E-08.
   The total correlation energy is -0.079285362555 a.u.
  Convergence information after    13 iterations: 
  Largest element of residual vector : -0.48884877E-09.
  Largest element of DIIS residual   :  0.24429993E-09.
   The total correlation energy is -0.079285362399 a.u.
  Convergence information after    14 iterations: 
  Largest element of residual vector :  0.11520615E-09.
  Largest element of DIIS residual   :  0.91393177E-10.
   The total correlation energy is -0.079285362373 a.u.
  Convergence information after    15 iterations: 
  Largest element of residual vector :  0.32248443E-10.
  Largest element of DIIS residual   : -0.31872201E-10.
  Amplitude equations converged in    15iterations.
   The total correlation energy is -0.079285362373 a.u.
   The CC iterations have converged.

   Largest T1 amplitudes for spin case AA:
   i       a                 i       a                 i       a    
-----------------------------------------------------------------------------
[  2       3    ]-0.02217 [  2       6    ] 0.01888 [  1       6    ] 0.00045
[  1       3    ]-0.00016 [  2       9    ]-0.00010 [  1       9    ]-0.00007
[  2       5    ] 0.00000 [  2       4    ] 0.00000 [  2       8    ] 0.00000
[  2       7    ] 0.00000 [  1       7    ] 0.00000 [  1       4    ] 0.00000
[  1       5    ] 0.00000 [  1       8    ] 0.00000 [  1       2    ] 0.00000
-----------------------------------------------------------------------------
   Norm of T1AA vector (       14 symmetry allowed elements):  0.0291219094.
-----------------------------------------------------------------------------
   Largest T2 amplitudes for spin case AB:
       _       _                 _       _                 _       _
   i   j   a   b             i   j   a   b             i   j   a   b
-----------------------------------------------------------------------------
[  2   2  15  15]-0.12960 [  2   2  21  21]-0.12960 [  2   2  11  11]-0.12960
[  2   2  16  15]-0.06107 [  2   2  15  16]-0.06107 [  2   2  22  21]-0.06107
[  2   2  21  22]-0.06107 [  2   2  12  11]-0.06107 [  2   2  11  12]-0.06107
[  2   2  11  10]-0.05231 [  2   2  10  11]-0.05231 [  2   2  15  14]-0.05231
[  2   2  14  15]-0.05231 [  2   2  21  20]-0.05231 [  2   2  20  21]-0.05231
-----------------------------------------------------------------------------
   Norm of T2AB vector (      436 symmetry allowed elements):  0.3173049144.
-----------------------------------------------------------------------------
       Summary of iterative solution of CC equations 
      -----------------------------------------------------------
                       Correlation           Total
       Iteration         Energy              Energy
      -----------------------------------------------------------
            0        -0.057768770612     -14.630147930564  DIIS 
            1        -0.069911618432     -14.642290778385  DIIS 
            2        -0.074345491816     -14.646724651769  DIIS 
            3        -0.078799484133     -14.651178644086  DIIS 
            4        -0.079236807772     -14.651615967725  DIIS 
            5        -0.079302483671     -14.651681643624  DIIS 
            6        -0.079283014192     -14.651662174145  DIIS 
            7        -0.079285488896     -14.651664648849  DIIS 
            8        -0.079285356520     -14.651664516472  DIIS 
            9        -0.079285375059     -14.651664535012  DIIS 
           10        -0.079285359366     -14.651664519319  DIIS 
           11        -0.079285362996     -14.651664522949  DIIS 
           12        -0.079285362850     -14.651664522803  DIIS 
           13        -0.079285362555     -14.651664522508  DIIS 
           14        -0.079285362399     -14.651664522352  DIIS 
           15        -0.079285362373     -14.651664522326  DIIS 
      -----------------------------------------------------------
      A miracle has come to pass. The CC iterations have converged.
      The reference energy is       -14.57237915995297 a.u.
      The correlation energy is      -0.07928536237264 a.u.
      The total energy is           -14.65166452232561 a.u.
  @CHECKOUT-I, Total execution time (CPU/WALL):        0.01/       0.09 seconds.
--executable xvcc finished with status     0 in        0.29 seconds (walltime).
 --invoking executable--
/home/nike/cfour_v2.00beta/bin/xlambda
 @GETMEM-I,  Allocated   30517 MB of main memory.
  Hbar is calculated for a CCSD wave function.
  
  @hbarijka: xnorm(                     1 ) =   4.197507957033529E-002
  
  @hbarijka: xnorm(                     4 ) =   0.553317223248219     
  Calculation of Hbar completed.
  @CHECKOUT-I, Total execution time (CPU/WALL):        0.01/       0.04 seconds.
--executable xlambda finished with status     0 in        0.21 seconds (walltime).
 --invoking executable--
/home/nike/cfour_v2.00beta/bin/xvee
 @GETMEM-I,  Allocated   30517 MB of main memory.
  EOMEE-CCSD excitation energies will be evaluated.
  @SETMET-I, VPROP property integrals are used.
  @SETMET-I, A total of   6 final states will be studied.
  Summary of active alpha molecular orbitals:
------------------------------------------------------------------------------
Orbital Symm. Eigenvalue  <xx>     <yy>     <zz>     <xy>     <xz>     <yz>
------------------------------------------------------------------------------
    1     1      -4.7332   0.000    0.000    0.000    0.000    0.000    0.000
    2     1      -0.3094   0.000    0.000    0.000    0.000    0.000    0.000
    3     1       0.0487   0.000    0.000    0.000    0.000    0.000    0.000
    4     1       0.2263   0.000    0.000    0.000    0.000    0.000    0.000
    5     1       0.2263   0.000    0.000    0.000    0.000    0.000    0.000
    6     1       0.3590   0.000    0.000    0.000    0.000    0.000    0.000
    7     1       0.7961   0.000    0.000    0.000    0.000    0.000    0.000
    8     1       0.7961   0.000    0.000    0.000    0.000    0.000    0.000
    9     1       8.2092   0.000    0.000    0.000    0.000    0.000    0.000
   10     2       0.0167   0.000    0.000    0.000    0.000    0.000    0.000
   11     2       0.0697   0.000    0.000    0.000    0.000    0.000    0.000
   12     2       0.3630   0.000    0.000    0.000    0.000    0.000    0.000
   13     2      10.0193   0.000    0.000    0.000    0.000    0.000    0.000
   14     3       0.0167   0.000    0.000    0.000    0.000    0.000    0.000
   15     3       0.0697   0.000    0.000    0.000    0.000    0.000    0.000
   16     3       0.3630   0.000    0.000    0.000    0.000    0.000    0.000
   17     3      10.0193   0.000    0.000    0.000    0.000    0.000    0.000
   18     4       0.2263   0.000    0.000    0.000    0.000    0.000    0.000
   19     4       0.7961   0.000    0.000    0.000    0.000    0.000    0.000
   20     5       0.0167   0.000    0.000    0.000    0.000    0.000    0.000
   21     5       0.0697   0.000    0.000    0.000    0.000    0.000    0.000
   22     5       0.3630   0.000    0.000    0.000    0.000    0.000    0.000
   23     5      10.0193   0.000    0.000    0.000    0.000    0.000    0.000
   24     6       0.2263   0.000    0.000    0.000    0.000    0.000    0.000
   25     6       0.7961   0.000    0.000    0.000    0.000    0.000    0.000
   26     7       0.2263   0.000    0.000    0.000    0.000    0.000    0.000
   27     7       0.7961   0.000    0.000    0.000    0.000    0.000    0.000
------------------------------------------------------------------------------
__________________________________________________________________________
    Tamm-Dancoff (CIS) Excitation Energies and Transition Moments

                Excitation         Transition Dipole         Oscillator
 Root  Symmetry  Energy         x           y           z     Strength
__________________________________________________________________________
   1       1    0.23073      0.0000      0.0000      0.0000  .00000000D+00
__________________________________________________________________________
 
__________________________________________________________________________
  TDA excitation ergy:             0.230727558982 a.u.    6.2784 eV
  Total TDA electronic energy:   -14.341651600971 a.u.
 
  Dominant contributions: 
  calling topamps 
--------------------------------------------------------------------------------
    I    j    A    b
--------------------------------------------------------------------------------
    2    0    3    0  -0.9983723580 AA  
    2    0    6    0   0.0570266393 AA  
    2    0    9    0   0.0006182035 AA  
    1    0    6    0   0.0003727219 AA  
    1    0    9    0  -0.0002500738 AA  
    1    0    3    0  -0.0001162447 AA  
    2    0    5    0   0.0000000000 AA  
    2    0    7    0   0.0000000000 AA  
    1    0    5    0   0.0000000000 AA  
    1    0    7    0   0.0000000000 AA  
    1    0    3    0   0.0000000000 AA  
    1    0    3    0   0.0000000000 AA  
    1    0    3    0   0.0000000000 AA  
    1    0    3    0   0.0000000000 AA  
--------------------------------------------------------------------------------
   2       1    0.34019      0.0000      0.0000      0.0000  .00000000D+00
__________________________________________________________________________
 
__________________________________________________________________________
  TDA excitation ergy:             0.340193055941 a.u.    9.2571 eV
  Total TDA electronic energy:   -14.232186104012 a.u.
 
  Dominant contributions: 
  calling topamps 
--------------------------------------------------------------------------------
    I    j    A    b
--------------------------------------------------------------------------------
    2    0    4    0  -0.9990850696 AA  
    2    0    8    0   0.0427659746 AA  
    1    0    8    0  -0.0003056548 AA  
    1    0    4    0   0.0000417136 AA  
    1    0    3    0   0.0000000000 AA  
    1    0    3    0   0.0000000000 AA  
    1    0    3    0   0.0000000000 AA  
    1    0    3    0   0.0000000000 AA  
    1    0    3    0   0.0000000000 AA  
    1    0    3    0   0.0000000000 AA  
    1    0    3    0   0.0000000000 AA  
    1    0    3    0   0.0000000000 AA  
    1    0    3    0   0.0000000000 AA  
    1    0    3    0   0.0000000000 AA  
--------------------------------------------------------------------------------
   3       1    0.34019      0.0000      0.0000      0.0000  .00000000D+00
__________________________________________________________________________
 
__________________________________________________________________________
  TDA excitation ergy:             0.340193055941 a.u.    9.2571 eV
  Total TDA electronic energy:   -14.232186104012 a.u.
 
  Dominant contributions: 
  calling topamps 
--------------------------------------------------------------------------------
    I    j    A    b
--------------------------------------------------------------------------------
    2    0    5    0  -0.9990850696 AA  
    2    0    7    0   0.0427659746 AA  
    1    0    7    0  -0.0003056548 AA  
    1    0    5    0   0.0000417136 AA  
    2    0    3    0   0.0000000000 AA  
    2    0    6    0   0.0000000000 AA  
    2    0    9    0   0.0000000000 AA  
    1    0    6    0   0.0000000000 AA  
    1    0    9    0   0.0000000000 AA  
    1    0    3    0   0.0000000000 AA  
    1    0    3    0   0.0000000000 AA  
    1    0    3    0   0.0000000000 AA  
    1    0    3    0   0.0000000000 AA  
    1    0    3    0   0.0000000000 AA  
--------------------------------------------------------------------------------
   4       1    0.47611      0.0000      0.0000      0.0000  .00000000D+00
__________________________________________________________________________
 
__________________________________________________________________________
  TDA excitation ergy:             0.476113081283 a.u.   12.9557 eV
  Total TDA electronic energy:   -14.096266078670 a.u.
 
  Dominant contributions: 
  calling topamps 
--------------------------------------------------------------------------------
    I    j    A    b
--------------------------------------------------------------------------------
    2    0    6    0  -0.9983710608 AA  
    2    0    3    0  -0.0570267213 AA  
    1    0    6    0  -0.0012615211 AA  
    2    0    9    0   0.0009009842 AA  
    1    0    9    0   0.0007875364 AA  
    1    0    3    0   0.0003932561 AA  
    2    0    7    0   0.0000000000 AA  
    2    0    5    0   0.0000000000 AA  
    1    0    5    0   0.0000000000 AA  
    1    0    7    0   0.0000000000 AA  
    1    0    3    0   0.0000000000 AA  
    1    0    3    0   0.0000000000 AA  
    1    0    3    0   0.0000000000 AA  
    1    0    3    0   0.0000000000 AA  
--------------------------------------------------------------------------------
   5       1    0.83293      0.0000      0.0000      0.0000  .00000000D+00
__________________________________________________________________________
 
__________________________________________________________________________
  TDA excitation ergy:             0.832927599755 a.u.   22.6651 eV
  Total TDA electronic energy:   -13.739451560197 a.u.
 
  Dominant contributions: 
  calling topamps 
--------------------------------------------------------------------------------
    I    j    A    b
--------------------------------------------------------------------------------
    2    0    7    0  -0.9990843671 AA  
    2    0    5    0  -0.0427663189 AA  
    1    0    7    0   0.0012019567 AA  
    1    0    5    0  -0.0001573463 AA  
    2    0    6    0   0.0000000000 AA  
    2    0    3    0   0.0000000000 AA  
    2    0    9    0   0.0000000000 AA  
    1    0    6    0   0.0000000000 AA  
    1    0    3    0   0.0000000000 AA  
    1    0    9    0   0.0000000000 AA  
    1    0    3    0   0.0000000000 AA  
    1    0    3    0   0.0000000000 AA  
    1    0    3    0   0.0000000000 AA  
    1    0    3    0   0.0000000000 AA  
--------------------------------------------------------------------------------
   6       1    0.83293      0.0000      0.0000      0.0000  .00000000D+00
__________________________________________________________________________
 
__________________________________________________________________________
  TDA excitation ergy:             0.832927599755 a.u.   22.6651 eV
  Total TDA electronic energy:   -13.739451560197 a.u.
 
  Dominant contributions: 
  calling topamps 
--------------------------------------------------------------------------------
    I    j    A    b
--------------------------------------------------------------------------------
    2    0    8    0  -0.9990843671 AA  
    2    0    4    0  -0.0427663189 AA  
    1    0    8    0   0.0012019567 AA  
    1    0    4    0  -0.0001573463 AA  
    1    0    3    0   0.0000000000 AA  
    1    0    3    0   0.0000000000 AA  
    1    0    3    0   0.0000000000 AA  
    1    0    3    0   0.0000000000 AA  
    1    0    3    0   0.0000000000 AA  
    1    0    3    0   0.0000000000 AA  
    1    0    3    0   0.0000000000 AA  
    1    0    3    0   0.0000000000 AA  
    1    0    3    0   0.0000000000 AA  
    1    0    3    0   0.0000000000 AA  
--------------------------------------------------------------------------------
__________________________________________________________________________
 irrepx                     9
  @DOEOMEE-I, Excitation energies computed by the EOMEE-CCSD/CCSD-LR method.
  @DOEOMEE-I, right-hand eigenvectors will be computed.
  Beginning symmetry block   1.   6 roots requested.
  @DOEOMEE-I, Matrix dimension for diagonalization:      450
  Creating initial guess for root
________________________________________________________________________
            Subspace          Eigenvalue           
 Iteration  Dimension   (a.u.)         (eV)       Overlap      Residual
________________________________________________________________________
  @NEWGES-I, Using TDA initial guess.
  1   1  0.2740783747D+00  0.7458051851D+01  0.0000000000D+00  0.2311312225D+00
  2   2  0.2538108585D+00  0.6906544688D+01  0.9788801523D+00  0.1034956117D+00
  3   3  0.2512070148D+00  0.6835690498D+01  0.9971462406D+00  0.1706491908D-01
  4   4  0.2509924763D+00  0.6829852608D+01  0.9998852709D+00  0.7228462544D-02
  5   5  0.2510195462D+00  0.6830589219D+01  0.9999817003D+00  0.2889892518D-02
  L-O-C-K-I-N-G O-N R-O-O-T 
  6   6  0.2510314665D+00  0.6830913585D+01  0.9999956142D+00  0.1098887428D-02
  7   7  0.2510301711D+00  0.6830878337D+01  0.9999987858D+00  0.6693171532D-03
  8   8  0.2510300726D+00  0.6830875655D+01  0.9999997085D+00  0.1309888396D-03
  9   9  0.2510289664D+00  0.6830845555D+01  0.9999999850D+00  0.1642746352D-04
 10  10  0.2510289866D+00  0.6830846104D+01  0.9999999999D+00  0.2751952173D-05
  Converged eigenvalue:   0.251028986588011       a.u.
   Total EOMEE-CCSD electronic energy      -14.400635535737603 a.u.
  Converged eigenvector 
--------------------------------------------------------------------------------
    I    j    A    b
--------------------------------------------------------------------------------
    2    0    3    0   0.6826810149 AA  
    2    2    3    3  -0.1143157153 ABAB
    2    2    6    3   0.0780355864 ABAB
    2    2    3    6   0.0780355864 ABAB
    2    0    6    0  -0.0743097924 AA  
    2    2   22   21   0.0550295299 ABAB
    2    2   21   22   0.0550295299 ABAB
    2    2   12   11   0.0550295299 ABAB
    2    2   11   12   0.0550295299 ABAB
    2    2   16   15   0.0550295299 ABAB
    2    2   15   16   0.0550295299 ABAB
    2    2   21   21   0.0484907127 ABAB
    2    2   15   15   0.0484907127 ABAB
    2    2   11   11   0.0484907127 ABAB
    2    2   12   12   0.0347594185 ABAB
    2    2   16   16   0.0347594185 ABAB
    2    2   22   22   0.0347594185 ABAB
    2    2   14   14  -0.0181313841 ABAB
    2    2   10   10  -0.0181313841 ABAB
    2    2   20   20  -0.0181313841 ABAB
    2    2   11   10  -0.0118266875 ABAB
    2    2   10   11  -0.0118266875 ABAB
    2    2   15   14  -0.0118266875 ABAB
    2    2   14   15  -0.0118266875 ABAB
    2    2   21   20  -0.0118266875 ABAB
    2    2   20   21  -0.0118266875 ABAB
    2    2   22   20   0.0090535262 ABAB
    2    2   20   22   0.0090535262 ABAB
    2    2   16   14   0.0090535262 ABAB
    2    2   14   16   0.0090535262 ABAB
--------------------------------------------------------------------------------

  Eigenvector is saved on CCRE_1_1  

  Adding new vector to expansion space.
  Guess for next eigenvalue   0.340193055941111     
 11  11  0.3604584352D+00  0.9808572830D+01  0.4789320718D-14  0.1028075025D+00
 12  12  0.3586420406D+00  0.9759146222D+01  0.9951179089D+00  0.1620259366D-01
 13  13  0.3584282209D+00  0.9753327891D+01  0.9997793262D+00  0.1747791836D-02
  L-O-C-K-I-N-G O-N R-O-O-T 
 14  14  0.3584246086D+00  0.9753229594D+01  0.9999984747D+00  0.8373841842D-04
 15  15  0.3584245695D+00  0.9753228530D+01  0.9999999969D+00  0.1634884069D-04
 16  16  0.3584245439D+00  0.9753227834D+01  0.9999999999D+00  0.9090076458D-06
  Converged eigenvalue:   0.358424543890646       a.u.
   Total EOMEE-CCSD electronic energy      -14.293239978434968 a.u.
  Converged eigenvector 
--------------------------------------------------------------------------------
    I    j    A    b
--------------------------------------------------------------------------------
    2    2   21   21   0.3599536296 ABAB
    2    2   15   15   0.3599536296 ABAB
    2    2   11   11   0.3599536296 ABAB
    2    2   15   14   0.2611882303 ABAB
    2    2   14   15   0.2611882303 ABAB
    2    2   21   20   0.2611882303 ABAB
    2    2   20   21   0.2611882303 ABAB
    2    2   11   10   0.2611882303 ABAB
    2    2   10   11   0.2611882303 ABAB
    2    2   20   20   0.1510074494 ABAB
    2    2   14   14   0.1510074494 ABAB
    2    2   10   10   0.1510074494 ABAB
    2    2   22   20   0.0981441411 ABAB
    2    2   20   22   0.0981441411 ABAB
    2    2   16   14   0.0981441411 ABAB
    2    2   14   16   0.0981441411 ABAB
    2    2   12   10   0.0981441411 ABAB
    2    2   10   12   0.0981441411 ABAB
    2    2   16   15   0.0770355931 ABAB
    2    2   15   16   0.0770355931 ABAB
    2    2   22   21   0.0770355931 ABAB
    2    2   21   22   0.0770355931 ABAB
    2    2   12   11   0.0770355931 ABAB
    2    2   11   12   0.0770355931 ABAB
    2    2   18   18  -0.0570123261 ABAB
    2    2    4    4  -0.0570123261 ABAB
    2    2   24   24  -0.0570123261 ABAB
    2    2    5    5  -0.0570123261 ABAB
    2    2   26   26  -0.0570123261 ABAB
    2    2   16   16  -0.0474103022 ABAB
--------------------------------------------------------------------------------

  Eigenvector is saved on CCRE_1_2  

  Adding new vector to expansion space.
  Guess for next eigenvalue   0.340193055941114     
 17  17  0.3841315133D+00  0.1045275005D+02  0.8721027280D-01  0.1472440199D+01
 18  18  0.3284515906D+00  0.8937622298D+01  0.7774950452D+00  0.4741119889D+00
 19  19  0.2840445219D+00  0.7729244507D+01  0.9058333610D+00  0.1921518004D+00
 20  20  0.2698547306D+00  0.7343120649D+01  0.9777682096D+00  0.7395838116D-01
 21  21  0.2680102971D+00  0.7292931061D+01  0.9965949730D+00  0.1587171642D-01
 22  22  0.2678726497D+00  0.7289185486D+01  0.9997627406D+00  0.4741687115D-02
  L-O-C-K-I-N-G O-N R-O-O-T 
 23  23  0.2678541556D+00  0.7288682237D+01  0.9999853008D+00  0.5421541019D-03
 24  24  0.2678542118D+00  0.7288683765D+01  0.9999998539D+00  0.4102898317D-04
 25  25  0.2678541673D+00  0.7288682555D+01  0.9999999991D+00  0.6748868443D-05
  Converged eigenvalue:   0.267854167324245       a.u.
   Total EOMEE-CCSD electronic energy      -14.383810355001369 a.u.
  Converged eigenvector 
--------------------------------------------------------------------------------
    I    j    A    b
--------------------------------------------------------------------------------
    2    2   11   11  -0.4816261419 ABAB
    2    2   15   15   0.4352926665 ABAB
    2    0    4    0  -0.3257162829 AA  
    2    2   11   10  -0.2446826661 ABAB
    2    2   10   11  -0.2446826661 ABAB
    2    2   15   14   0.2211423330 ABAB
    2    2   14   15   0.2211423330 ABAB
    2    2   12   11  -0.1384601725 ABAB
    2    2   11   12  -0.1384601725 ABAB
    2    2   16   15   0.1251389792 ABAB
    2    2   15   16   0.1251389792 ABAB
    2    2   10   10  -0.1183817510 ABAB
    2    2   14   14   0.1069931159 ABAB
    2    0    8    0   0.0928003281 AA  
    2    2   12   10  -0.0860696085 ABAB
    2    2   10   12  -0.0860696085 ABAB
    2    2   16   14   0.0777895742 ABAB
    2    2   14   16   0.0777895742 ABAB
    2    2   21   21   0.0463334753 ABAB
    2    0    5    0   0.0285083139 AA  
    2    2   21   20   0.0235403331 ABAB
    2    2   20   21   0.0235403331 ABAB
    2    2    6    4  -0.0216106140 ABAB
    2    2    4    6  -0.0216106140 ABAB
    2    2    4    3   0.0171370120 ABAB
    2    2    3    4   0.0171370120 ABAB
    2    2    5    4  -0.0155182109 ABAB
    2    2    4    5  -0.0155182109 ABAB
    2    2   26   26  -0.0141176749 ABAB
    2    2   22   21   0.0133211932 ABAB
--------------------------------------------------------------------------------

  Eigenvector is saved on CCRE_1_3  

  Adding new vector to expansion space.
  Guess for next eigenvalue   0.476113081283389     
 26  26  0.3841151272D+00  0.1045230416D+02  0.4468641604D-09  0.1469574669D+01
 27  27  0.3282188265D+00  0.8931288465D+01  0.7764388853D+00  0.4719153575D+00
 28  28  0.2839331604D+00  0.7726214207D+01  0.9063105642D+00  0.1913100594D+00
 29  29  0.2698431882D+00  0.7342806566D+01  0.9779450377D+00  0.7385968725D-01
 30  30  0.2680084079D+00  0.7292879655D+01  0.9966136580D+00  0.1578823122D-01
 31  31  0.4028681707D+00  0.1096260042D+02  0.3798877321D-04  0.2367884479D+00
 32  32  0.3969769596D+00  0.1080229241D+02  0.9799390429D+00  0.2391055509D-01
 33  33  0.3966301527D+00  0.1079285532D+02  0.9994770137D+00  0.2796416061D-02
  L-O-C-K-I-N-G O-N R-O-O-T 
 34  34  0.3966211447D+00  0.1079261020D+02  0.9999962189D+00  0.2116168005D-03
 35  35  0.3966212785D+00  0.1079261384D+02  0.9999999799D+00  0.3017146115D-04
 36  36  0.3966212145D+00  0.1079261210D+02  0.9999999996D+00  0.2492827410D-05
  Converged eigenvalue:   0.396621214460859       a.u.
   Total EOMEE-CCSD electronic energy      -14.255043307864755 a.u.
  Converged eigenvector 
--------------------------------------------------------------------------------
    I    j    A    b
--------------------------------------------------------------------------------
    2    0    4    0  -0.6033617897 AA  
    2    2   11   10   0.1740036081 ABAB
    2    2   10   11   0.1740036081 ABAB
    2    2   11   11   0.1736412131 ABAB
    2    2   15   14  -0.1576209616 ABAB
    2    2   14   15  -0.1576209616 ABAB
    2    2   15   15  -0.1572918228 ABAB
    2    2   10   10   0.1106036897 ABAB
    2    2   14   14  -0.1001903088 ABAB
    2    2   12   10   0.0894115605 ABAB
    2    2   10   12   0.0894115605 ABAB
    2    2    6    4  -0.0853098473 ABAB
    2    2    4    6  -0.0853098473 ABAB
    2    2   16   14  -0.0809933875 ABAB
    2    2   14   16  -0.0809933875 ABAB
    2    2   12   11   0.0679100218 ABAB
    2    2   11   12   0.0679100218 ABAB
    2    2   16   15  -0.0615157202 ABAB
    2    2   15   16  -0.0615157202 ABAB
    2    2    4    3   0.0605554448 ABAB
    2    2    3    4   0.0605554448 ABAB
    2    0    5    0   0.0516282947 AA  
    2    2    5    4   0.0391454213 ABAB
    2    2    4    5   0.0391454213 ABAB
    2    2   26   26   0.0355762390 ABAB
    2    2   24   24  -0.0322266373 ABAB
    2    0    8    0  -0.0277479658 AA  
    2    2    7    4  -0.0174400831 ABAB
    2    2    4    7  -0.0174400831 ABAB
    2    2    8    5  -0.0174400831 ABAB
--------------------------------------------------------------------------------

  Eigenvector is saved on CCRE_1_4  

  Adding new vector to expansion space.
  Guess for next eigenvalue   0.832927599755484     
 37  37  0.4031297380D+00  0.1096971803D+02  0.5722282174D-01  0.2442629368D+00
 38  38  0.3969874287D+00  0.1080257729D+02  0.9864514578D+00  0.2751130941D-01
 39  39  0.4273729375D+00  0.1162940904D+02  0.1446279638D-03  0.3266514492D-01
 40  40  0.4268804632D+00  0.1161600813D+02  0.9998737802D+00  0.6688198532D-03
  L-O-C-K-I-N-G O-N R-O-O-T 
 41  41  0.4268790271D+00  0.1161596905D+02  0.9999997757D+00  0.6163222090D-04
 42  42  0.4268790240D+00  0.1161596897D+02  0.9999999979D+00  0.6599073958D-05
  Converged eigenvalue:   0.426879024002131       a.u.
   Total EOMEE-CCSD electronic energy      -14.224785498323483 a.u.
  Converged eigenvector 
--------------------------------------------------------------------------------
    I    j    A    b
--------------------------------------------------------------------------------
    2    2   11   11   0.4048788548 ABAB
    2    2   15   15  -0.3648488189 ABAB
    2    2   10   10  -0.2983601237 ABAB
    2    2   11   10  -0.2877365024 ABAB
    2    2   10   11  -0.2877365024 ABAB
    2    2   14   14   0.2688615008 ABAB
    2    2   15   14   0.2592882622 ABAB
    2    2   14   15   0.2592882622 ABAB
    2    2   12   10  -0.1767679539 ABAB
    2    2   10   12  -0.1767679539 ABAB
    2    2   12   11   0.1608987402 ABAB
    2    2   11   12   0.1608987402 ABAB
    2    2   16   14   0.1592910252 ABAB
    2    2   14   16   0.1592910252 ABAB
    2    2   16   15  -0.1449908877 ABAB
    2    2   15   16  -0.1449908877 ABAB
    2    0    4    0  -0.1055365940 AA  
    2    0    8    0  -0.0438841220 AA  
    2    2   21   21  -0.0400300359 ABAB
    2    2   20   20   0.0294986228 ABAB
    2    2   21   20   0.0284482402 ABAB
    2    2   20   21   0.0284482402 ABAB
    2    2   12   12   0.0261155882 ABAB
    2    2   16   16  -0.0235336514 ABAB
    2    2   22   20   0.0174769287 ABAB
    2    2   20   22   0.0174769287 ABAB
    2    2   22   21  -0.0159078525 ABAB
    2    2   21   22  -0.0159078525 ABAB
    2    2    4    3  -0.0158732509 ABAB
    2    2    3    4  -0.0158732509 ABAB
--------------------------------------------------------------------------------

  Eigenvector is saved on CCRE_1_5  

  Adding new vector to expansion space.
  Guess for next eigenvalue   0.832927599755485     
 43  43  0.4389279722D+00  0.1194383752D+02  0.2768116223D-09  0.4928262097D-01
 44  44  0.4374350757D+00  0.1190321374D+02  0.9996489848D+00  0.2061378717D-02
  L-O-C-K-I-N-G O-N R-O-O-T 
 45  45  0.4374254597D+00  0.1190295208D+02  0.9999986854D+00  0.1218137923D-03
 46  46  0.4374255175D+00  0.1190295365D+02  0.9999999946D+00  0.5185291495D-05
  Converged eigenvalue:   0.437425517539366       a.u.
   Total EOMEE-CCSD electronic energy      -14.214239004786247 a.u.
  Converged eigenvector 
--------------------------------------------------------------------------------
    I    j    A    b
--------------------------------------------------------------------------------
    2    2   21   21   0.3835002039 ABAB
    2    2   11   11   0.3834995033 ABAB
    2    2   15   15   0.3834994271 ABAB
    2    2   20   20  -0.2087695268 ABAB
    2    2   10   10  -0.2087690335 ABAB
    2    2   14   14  -0.2087689788 ABAB
    2    2   21   20  -0.1833303378 ABAB
    2    2   20   21  -0.1833303378 ABAB
    2    2   11   10  -0.1833298777 ABAB
    2    2   10   11  -0.1833298777 ABAB
    2    2   15   14  -0.1833298273 ABAB
    2    2   14   15  -0.1833298273 ABAB
    2    2   22   20  -0.1365952531 ABAB
    2    2   20   22  -0.1365952531 ABAB
    2    2   12   10  -0.1365949609 ABAB
    2    2   10   12  -0.1365949609 ABAB
    2    2   16   14  -0.1365949292 ABAB
    2    2   14   16  -0.1365949292 ABAB
    2    2   22   21   0.1197529289 ABAB
    2    2   21   22   0.1197529289 ABAB
    2    2   12   11   0.1197527237 ABAB
    2    2   11   12   0.1197527237 ABAB
    2    2   16   15   0.1197527009 ABAB
    2    2   15   16   0.1197527009 ABAB
    2    0    3    0  -0.0790515127 AA  
    2    0    6    0  -0.0649133712 AA  
    2    2    3    3   0.0379985689 ABAB
    2    2    6    6  -0.0262118496 ABAB
    2    2    7    7  -0.0177107736 ABAB
    2    2   25   25  -0.0177107685 ABAB
--------------------------------------------------------------------------------

  Eigenvector is saved on CCRE_1_6  

  Solution of   6 roots required   46 iterations.
  @CHECKOUT-I, Total execution time (CPU/WALL):        0.13/       1.01 seconds.
--executable xvee finished with status     0 in        1.89 seconds (walltime).
  The final electronic energy is       -14.214239004786247 a.u. 
  This computation required                            8.17 seconds (walltime).
--- SharcNET Job Epilogue ---
Job completed successfully.
               jobid: 1537499
               resid: 3017185
         exit status: 0
      allocated time: 9.24745
           user time: 0.38
         system time: 0.16
peak rss=203882496; peak vsz=203882496 (bytes)
atime=9.24745; utime=0.38; stime=0.16; exit=0
