 --invoking executable--
/home/nike/cfour_v2.00beta/bin/xjoda


   *************************************************************************
         <<<     CCCCCC     CCCCCC   |||     CCCCCC     CCCCCC   >>>
       <<<      CCC        CCC       |||    CCC        CCC         >>>
      <<<      CCC        CCC        |||   CCC        CCC            >>>
    <<<        CCC        CCC        |||   CCC        CCC              >>>
      <<<      CCC        CCC        |||   CCC        CCC            >>>
       <<<      CCC        CCC       |||    CCC        CCC         >>>
         <<<     CCCCCC     CCCCCC   |||     CCCCCC     CCCCCC   >>>
   *************************************************************************

     ****************************************************************
     * CFOUR Coupled-Cluster techniques for Computational Chemistry *
     ****************************************************************
 

   Department of Chemistry                Institut fuer Physikalische Chemie
   University of Texas at Austin          Universitaet Mainz
   Austin, TX  78712, USA                 D-55099 Mainz, Germany
 
                       Version 2.00beta
 
                     wob119                                            
                     Mon Jan  7 22:04:06 EST 2019                      
                     integer*8 version is running
 
********************************************************************************
*                          Input from ZMAT file                                *
********************************************************************************
TITLE                                                                           
O                                                                               
H 1 R                                                                           
H 1 R 2 A                                                                       
                                                                                
R=0.9576257                                                                     
A=104.51                                                                        
                                                                                
*ACES2(CALC=CCSD                                                                
PRINT=4                                                                         
JODA_PRINT=4                                                                    
INPUT_MRCC=OFF                                                                  
CC_PROG=MRCC                                                                    
FROZEN_CORE=ON                                                                  
#DROPMO=1>5                                                                     
CONTRACTION=GENERAL                                                             
RELATIVISTIC=OFF                                                                
EXCITE=EOMEE                                                                    
ESTATE_CONV=5                                                                   
ESTATE_SYM=2/2/2/2/2/2/2/2                                                      
XFORM_TOL=18                                                                    
SAVE_INTS=ON                                                                    
SCF_EXPORDER=6                                                                  
SCF_EXPSTART=5                                                                  
#SCF_DAMPING=1000                                                               
SCF_EXTRAPOLATION=ON                                                            
SCF_CONV=12                                                                     
SCF_MAXCYC=9999                                                                 
CC_CONV=10                                                                      
CC_MAXCYC=999                                                                   
T3_EXTRAPOL=ON                                                                  
REFERENCE=RHF                                                                   
CHARGE=+0                                                                       
MULT=1                                                                          
ABCDTYPE=STANDARD                                                               
#OCCUPATION=3-2-2-0-1-0-0-0/3-1-1-0-1-0-0-0                                     
MEM=4                                                                           
MEM_UNIT=GB                                                                     
BASIS=SPECIAL)                                                                  
                                                                                
O:VDZ-EMSL                                                                      
H:VDZ-EMSL                                                                      
H:VDZ-EMSL                                                                      
                                                                                
********************************************************************************
  @GTFLGS-W, Keyword #DROPMO not known and is ignored.
  @GTFLGS-W, Keyword #SCF_DAMPING not known and is ignored.
  @GTFLGS-W, Keyword #OCCUPATION not known and is ignored.
    -------------------------------------------------------------------
                    CFOUR Control Parameters 
    -------------------------------------------------------------------
        External           Internal           Value            Units
          Name               Name
    -------------------------------------------------------------------
       ABCDTYPE             IABCDT         STANDARD     [  0]   ***   
       ANHARMONIC           IANHAR         OFF          [  0]   ***   
       ANH_ALGORIT          IANALG         STANDARD     [  0]   ***   
       ANH_DERIVAT          IANDER         SECOND       [  1]   ***   
       ANH_STEPSIZ          ICUBST             50000          x 10-6  
       ANH_SYMMETR          IANHSM         ABELIAN      [  0]   ***   
       AO_LADDERS           IAOLAD         SINGLEPASS   [  1]   ***   
       BASIS                IBASIS         SPECIAL      [  0]   ***   
       BREIT                IBREIT         OFF          [  0]   ***   
       BRUCK_CONV           IBRTOL          10D-  4             ***   
       BRUECKNER            IBRKNR             OFF      [  0]   ***   
       BUFFERSIZE           IBUFFS            600               ***   
       CACHE_RECS           ICHREC             10               ***   
       CALCLEVEL            ICLLVL           CCSD       [ 10]   ***   
       CCORBOPT             ICCORB             OFF      [  0] x 0.01  
       CC_CONV              ICCCNV          10D- 10             ***   
       CC_EXPORDER          ICCEOR              5               ***   
       CC_EXTRAPOL          ICCEXT             DIIS     [  1]   ***   
       CC_MAXCYC            ICCCYC            999              cycles 
       CC_PROGRAM           ICCPRO         MRCC         [  2]   ***   
       CHARGE               ICHRGE              0               ***   
       CHOLESKY             ICHOLE         OFF          [  0]   ***   
       CIS_CONV             ICISTL              5               ***   
       COMM_SIZE            IPSIZE            ***               ***   
       CONSTANT             ICONST         OLD          [  1]   ***   
       CONTINUUM            ICONTU         NONE         [  0]   ***   
       CONTRACTION          ICNTYP          GENERAL     [  1]   ***   
       COORDINATES          ICOORD         INTERNAL     [  0]   ***   
       CPHF_CONVER          ICPHFT          10D- 16             ***   
       CPHF_MAXCYC          ICPHFC             64              cycles 
       CUBIC                ICUBIC         OFF          [  0]   ***   
       CURVILINEAR          ICURVY            OFF       [  0]   ***   
       DBOC                 IDBOC          OFF          [  0]   ***   
       DCT                  IDCT           OFF          [  0]   ***   
       DERIV_LEV            IDRLVL            ZERO      [  0]   ***   
       DIAG_MRCC            IEOMST          10D-  0             ***   
       DIFF_TYPE            IDIFTY         RELAXED      [  0]   ***   
       DIRECT               IDIRCT         OFF          [  0]   ***   
       DROPMO               IDRPMO      NONE         
       ECP                  IECP           OFF          [  0]   ***   
       EIGENVECTOR          IVEC                1               ***   
       EL_ANHARM            IELANH         OFF          [  0]   ***   
       EOMFOLLOW            IEOMSR         ENERGY       [  0]   ***   
       EOM_MRCC             IMRCCE         NEW          [  1]   ***   
       EOM_NONIT            EOMNON         OFF          [  0]   ***   
       EOM_NSING            IEOMSI          10D-  0             ***   
       EOM_NSTATES          IMRCCD         DAVIDSON     [  0]   ***   
       EOM_NTRIP            IEOMTR          10D-  0             ***   
       EOM_ORDER            IEXORD         ENERGY       [  0]   ***   
       ESTATE_CONV          IEXTOL          10D-  5             ***   
       ESTATE_DIAG          IEXDIG         ITERATIVE    [  0]   ***   
       ESTATE_LOCK          IESLOC         ON           [  1]   ***   
       ESTATE_MAXC          IEXMXC             20               ***   
       ESTATE_PROP          IEXPRP         OFF          [  0]   ***   
       ESTATE_SYM           IEXSYM   2,  2,  2,  2,  2,  2,  2,  2,
       EVAL_HESS            IRECAL              0            # of cyc.
       EXCITATION           IEXCIT              0               ***   
       EXCITE               IEXCIT         EOMEE        [  3]   ***   
       FCGRADNEW            IFCGNW         OFF          [  0]   ***   
       FC_FIELD             IFINFC              0             x 10-6  
       FD_CALTYPE           IFDCAL         GRADONLY     [  0]   ***   
       FD_PROJECT           IFDPRJ         OFF          [  1]   ***   
       FD_STEPSIZE          IDISFD              0            10-4 bohr
       FD_USEGROUP          IFDGRP         FULL         [  0]   ***   
       FILE_RECSIZ          IFLREC              4096           words  
       FINITE_PERT          IFIPER              0             x 10-6  
       FIXGEOM              IFIXGM         OFF          [  0]   ***   
       FOCK                 IFOCK          AO           [  1]   ***   
       FREQ_ALGORI          IVIALG         STANDARD     [  0]   ***   
       FROZEN_CORE          IFROCO         ON           [  1]   ***   
       FROZEN_VIRT          IFROVI         OFF          [  0]   ***   
       GAMMA_ABCD           IGABCD         STORE        [  0]   ***   
       GAMMA_ABCI           IGABCI         STORE        [  0]   ***   
       GENBAS_1             IGNBS1              0               ***   
       GENBAS_2             IGNBS2              0               ***   
       GENBAS_3             IGNBS3              0               ***   
       GENBAS_4             IGNBS4              0               ***   
       GEO_CONV             ICONTL              5              H/bohr 
       GEO_MAXCYC           IOPTCY             50               ***   
       GEO_MAXSTEP          IMXSTP            300            millibohr
       GEO_METHOD           INR            SINGLE_POINT [  5]   ***   
       GIAO                 IGIAO          OFF          [  1]   ***   
       GIMIC                IGIMIC         OFF          [  0]   ***   
       GRID                 IGRID          OFF          [  0]   ***   
       GRID_ALGO            IGALGO         SERIAL       [  0]   ***   
       GUESS                IGUESS            MOREAD    [  0]   ***   
       HBAR                 IHBAR               ON      [  1]   ***   
       HESS_TYPE            IHESTP         SCF          [  0]   ***   
       HF2_FILE             IHF2Fl         USE          [  1]   ***   
       HFSTABILITY          ISTABL         OFF          [  0]   ***   
       INCORE               INCORE             OFF      [  0]   ***   
       INPUT_MRCC           IMRCC          OFF          [  0]   ***   
       INTEGRALS            INTTYP             VMOL     [  1]   ***   
       JODA_PRINT           IJPRNT              4               ***   
       LINDEP_TOL           ILINDP              8               ***   
       LINEQ_CONV           IZTACN          10D-  7           cycles  
       LINEQ_EXPOR          ILMAXD              5               ***   
       LINEQ_MAXCY          ILMAXC             50               ***   
       LINEQ_TYPE           ILTYPE         DIIS         [  1]   ***   
       LOCK_ORBOCC          ILOCOC             OFF      [  0]   ***   
       MEMORY_SIZE          IMEMSZ         500000000           words  
       MEM_UNIT             IMEMU          GB           [  3]   ***   
       MRCC                 IMRCCC         OFF          [  0]   ***   
       MULTIPLICTY          IMULTP              1               ***   
       NEGEVAL              IDIE             ABORT      [  0]   ***   
       NEWNORM              INEWNO         OFF          [  0]   ***   
       NON-HF               INONHF             OFF      [  0]   ***   
       NTOP_TAMP            ITOPT2             15               ***   
       NUC_MODEL            INUCMO         POINT        [  0]   ***   
       OCCUPATION           IOCCU   ESTIMATED BY SCF 
       OPEN-SHELL           IOPEN          SPIN-ORBITAL [  0]   ***   
       ORBITALS             IORBTP           STANDARD   [  0]   ***   
       PARALLEL             IPARAL         ON           [  1]   ***   
       PARA_INT             IPINTS         ON           [  1]   ***   
       PARA_PRINT           IPPRIN              0               ***   
       PERT_ORB             IPTORB         STANDARD     [  0]   ***   
       POINTS               IGRDFD              0               ***   
       PRINT                IPRNT               4               ***   
       PROPS                IPROPS             OFF      [  0]   ***   
       PROP_INTEGR          IINTYP         INTERNAL     [  0]   ***   
       PSI                  IPSI           OFF          [  0]   ***   
       QUARTIC              IQUART         OFF          [  0]   ***   
       RAMAN_INT            IRAMIN         OFF          [  0]   ***   
       RAMAN_ORB            IRAMRE         UNRELAXED    [  0]   ***   
       RDO                  IRDOFM             OFF      [  0]   ***   
       REFERENCE            IREFNC             RHF      [  0]   ***   
       RELATIVIST           IRELAT         OFF          [  0]   ***   
       RELAX_DENS           IRDENS             OFF      [  0]   ***   
       RESET_FLAGS          IRESET             OFF      [  0]   ***   
       RESTART_CC           ICCRES         OFF          [  0]   ***   
       ROT_EVEC             ROTVEC              0               ***   
       SAVE_INTS            ISVINT              ON      [  1]   ***   
       SCALE_ON             ISTCRT              0               ***   
       SCF_CONV             ISCFCV          10D- 12             ***   
       SCF_DAMPING          IDAMP               0             x 10-3  
       SCF_EXPORDE          IRPPOR              6               ***   
       SCF_EXPSTAR          IRPPLS              5               ***   
       SCF_EXTRAPO          IRPP                ON      [  1]   ***   
       SCF_MAXCYC           ISCFCY            ***              cycles 
       SCF_NOSTOP           ISCFST         OFF          [  0]   ***   
       SCF_PRINT            ISCFPR              0               ***   
       SD_FIELD             IFINSD              0             x 10-6  
       SEQUENCE             ISEQUE         OFF          [  0]   ***   
       SOPERT               IPERSO         OFF          [  0]   ***   
       SPHERICAL            IDFGHI             ON       [  1]   ***   
       SPINORBIT            ISOCAL         OFF          [  0]   ***   
       SPINROTATIO          ISRCON         OFF          [  0]   ***   
       SPIN_FLIP            ISPFLP         OFF          [  0]   ***   
       SPIN_ORBIT           ISPORB         OFF          [  0]   ***   
       SPIN_SCAL            ISCSMP         OFF          [  0]   ***   
       SUBGROUP             ISUBGP         DEFAULT      [  0]   ***   
       SUBGRPAXIS           ISBXYZ         X            [  0]   ***   
       SYMMETRY             ISYM             ON         [  0]   ***   
       SYM_CHECK            ISYMCK         OVERRIDE     [  1]   ***   
       T3_EXTRAPOL          IT3EXT         ON           [  1]   ***   
       TAMP_SUM             IEVERY              5               ***   
       TESTSUITE            ITESTS         OFF          [  0]   ***   
       THERMOCH             ITHERM         OFF          [  0]   ***   
       TOL_CHOLESK          ITOLCH          10D-  4             ***   
       TRANGRAD             IRESRM         OFF          [  0]   ***   
       TRANS_INV            ITRAIN         USE          [  0]   ***   
       TREAT_PERT           ITREAT         SIMULTANEOUS [  0]   ***   
       UIJ_THRESHO          IUIJTH              1               ***   
       UNITS                IUNITS         ANGSTROM     [  0]   ***   
       UNOS                 IUNOS          OFF          [  0]   ***   
       UPDATE_HESS          IHUPDT         ON           [  1]   ***   
       VIBPHASE             ISETPH         STANDARD     [  0]   ***   
       VIBRATION            IVIB              NO        [  0]   ***   
       VIB_ALGORIT          IGEALG         STANDARD     [  0]   ***   
       VNATORB              IVNORB         OFF          [  0]   ***   
       VTRAN                IVTRAN         FULL/PARTIAL [  0]   ***   
       XFIELD               IXEFLD              0             x 10-6  
       XFORM_TOL            IXFTOL          10D- 18             ***   
       YFIELD               IYEFLD              0             x 10-6  
       ZFIELD               IZEFLD              0             x 10-6  
    -------------------------------------------------------------------
   3 entries found in Z-matrix 
   Job Title : TITLE                                                                           
 Variable names read by FETCHZ
  1           
  2           
  3           
  4 R         
  5           
  6           
  7 R         
  8 A         
  9           
 Atomic symbols read by FETCHZ
  1 O    
  2 H    
  3 H    
 Connectivity matrix read by FETCHZ
  1   0
  2   0
  3   0
  4   1
  5   0
  6   0
  7   1
  8   2
  9   0
   There are  2 unique internal coordinates.
   Of these,  0 will be optimized.
   User supplied Z-matrix: 
--------------------------------------------------------------------------------
       SYMBOL    BOND      LENGTH    ANGLE     ANGLE     DIHED     ANGLE
                  TO      (ANGST)    WRT      (DEG)      WRT      (DEG)
--------------------------------------------------------------------------------
        O    
        H          1         R    
        H          1         R          2        A    
                  *Initial values for internal coordinates* 
                      Name             Value
                        R               0.9576257000
                        A             104.5100000000
--------------------------------------------------------------------------------
  1  O          8    15.99491
  2  H          1     1.00783
  3  H          1     1.00783
   15.9949146300
    1.0078250350
    1.0078250350
 After translation to center of mass coordinates 
       -0.098033508258    0.000000000000   -0.075891969219
       -0.098033508258    0.000000000000    1.733758712944
        1.653896421974    0.000000000000   -0.529298090715
  Inertia tensor (amu*bohr**2)
    3.40391    0.00000    0.93455
    0.00000    6.32410    0.00000
    0.93455    0.00000    2.92018
    Inertia tensor:
        3.403913567470    0.000000000000    0.934549268627
        0.000000000000    6.324097332824    0.000000000000
        0.934549268627    0.000000000000    2.920183765354
    Principal axis orientation for molecular system: 
        0.000000000000   -0.123976448301    0.000000000000
       -1.430968603519    0.983798098796    0.000000000000
        1.430968603519    0.983798098796    0.000000000000
    Diagonalized inertia tensor:
        2.196708847563    0.000000000000    0.000000000000
        0.000000000000    4.127388485261    0.000000000000
        0.000000000000    0.000000000000    6.324097332824
    Eigenvectors of inertia tensor: 
        0.612148277021    0.790742996769    0.000000000000
        0.000000000000    0.000000000000    1.000000000000
       -0.790742996769    0.612148277021    0.000000000000
 factor:   60.1997200000000     
   Rotational constants (in cm-1): 
          9.5191008031            14.5854261635            27.4045056389
   Rotational constants (in MHz): 
     285375.5027524238        437260.1373131822        821566.5256739719
  @SYMMETRY-I, Handedness of inertial frame:-1.00000
  @SYMMETRY-I, Sense of inertial frame y-axis will be changed.
  @SYMMETRY-I, The symmetry group is 1-fold degenerate.
  @SYMMETRY-I, The molecule belongs to an Abelian group.
   Principal axis orientation for molecule:
        0.000000000000    0.123976448301    0.000000000000
       -1.430968603519   -0.983798098796    0.000000000000
        1.430968603519   -0.983798098796    0.000000000000
   Reflection in plane  3 is a valid symmetry operation.
   Rotation about  2 is a valid symmetry operation 
   Reflection in plane  1 is a valid symmetry operation.
  Symmetry bits:    5   2   0
********************************************************************************
   The full molecular point group is C2v .
   The largest Abelian subgroup of the full molecular point group is C2v .
   The computational point group is C2v .
********************************************************************************
--------------------------------------------------------------------------------
   Analysis of internal coordinates specified by Z-matrix 
--------------------------------------------------------------------------------
   *The nuclear repulsion energy is    9.190899028787090 a.u.
   *There are   2 degrees of freedom within the tot. symm. molecular subspace.
   *Z-matrix requests optimization of   0 coordinates.
   *The optimization is constrained.
   *The following   2 parameters can have non-zero 
    derivatives within the totally symmetric subspace:
             A    [ 3]  R    [ 1]
   *The following   0 parameters are to be optimized:

   *The following coordinates must be varied in an  unconstrained optimization.
             A    [ 3]  R    [ 1]
--------------------------------------------------------------------------------
 ----------------------------------------------------------------
 Z-matrix   Atomic            Coordinates (in bohr)
  Symbol    Number           X              Y              Z
 ----------------------------------------------------------------
     O         8         0.00000000     0.00000000     0.12397645
     H         1         0.00000000    -1.43096860    -0.98379810
     H         1         0.00000000     1.43096860    -0.98379810
 ----------------------------------------------------------------
   Interatomic distance matrix (Angstroms) 
 
                 O             H             H    
                [ 1]        [ 2]        [ 3]
  O    [ 1]     0.00000
  H    [ 2]     0.95763     0.00000
  H    [ 3]     0.95763     1.51447     0.00000
  Inertia tensor (amu*bohr**2)
    6.32410    0.00000    0.00000
    0.00000    2.19671    0.00000
    0.00000    0.00000    4.12739
   Rotational constants (in cm-1): 
          9.5191008031            27.4045056389            14.5854261635
   Rotational constants (in MHz): 
     285375.5027524236        821566.5256739716        437260.1373131821
  @GTFLGS-W, Keyword #DROPMO not known and is ignored.
  @GTFLGS-W, Keyword #SCF_DAMPING not known and is ignored.
  @GTFLGS-W, Keyword #OCCUPATION not known and is ignored.
  There is   1 frozen-core orbital.
  There are   24 basis functions.
 @GEOPT-W, Archive file not created for single-point calculation.
  @CHECKOUT-I, Total execution time (CPU/WALL):        0.33/       2.13 seconds.
--executable xjoda finished with status     0 in        2.37 seconds (walltime).
 --invoking executable--
/home/nike/cfour_v2.00beta/bin/xvmol
 Serial version of molecule started
********************************************************************************
                    Input from MOL file
********************************************************************************
INTGRL        1    0    1    0    0    0    0    0    0                         
         *** CFOUR Program System (Release V0.1) ***                            
TITLE                                                                           
    2    2 X  Y       0.10E-08              0    0                              
   9999.00      3.00                                                            
          8.00000000    1    3    1    1    1                                   
O #1   0.000000000000000   0.000000000000000   0.123976448300873                
    9    3                                                                      
   11720.0000000000       7.100000000000000E-004 -1.600000000000000E-004        
  0.000000000000000E+000                                                        
   1759.00000000000       5.470000000000000E-003 -1.263000000000000E-003        
  0.000000000000000E+000                                                        
   400.800000000000       2.783700000000000E-002 -6.267000000000000E-003        
  0.000000000000000E+000                                                        
   113.700000000000       0.104800000000000      -2.571600000000000E-002        
  0.000000000000000E+000                                                        
   37.0300000000000       0.283062000000000      -7.092400000000000E-002        
  0.000000000000000E+000                                                        
   13.2700000000000       0.448719000000000      -0.165411000000000             
  0.000000000000000E+000                                                        
   5.02500000000000       0.270952000000000      -0.116955000000000             
  0.000000000000000E+000                                                        
   1.01300000000000       1.545800000000000E-002  0.557368000000000             
  0.000000000000000E+000                                                        
  0.302300000000000      -2.585000000000000E-003  0.572759000000000             
   1.00000000000000                                                             
    4    2                                                                      
   17.7000000000000       4.301800000000000E-002  0.000000000000000E+000        
   3.85400000000000       0.228913000000000       0.000000000000000E+000        
   1.04600000000000       0.508728000000000       0.000000000000000E+000        
  0.275300000000000       0.460531000000000        1.00000000000000             
    1    1                                                                      
   1.18500000000000        1.00000000000000                                     
          1.00000000    1    2    1    1                                        
H #2   0.000000000000000  -1.430968603519347  -0.983798098795531                
    4    2                                                                      
   13.0100000000000       1.968500000000000E-002  0.000000000000000E+000        
   1.96200000000000       0.137977000000000       0.000000000000000E+000        
  0.444600000000000       0.478148000000000       0.000000000000000E+000        
  0.122000000000000       0.501240000000000        1.00000000000000             
    1    1                                                                      
  0.727000000000000        1.00000000000000                                     
FINISH                                                                          
 
********************************************************************************
 One- and two-electron integrals over symmetry-adapted AOs are calculated.

  Spherical harmonics are used.
  
   2 types of atoms
   2 symmetry operations

   Reflection in the YZ-plane
   Reflection in the XZ-plane
  
  Integrals less than  0.10E-13 are neglected.

  Atomic type number  1 :
  -----------------------

    Nuclear charge:                        8
    number of symmetry independent atoms:  1
    highest orbital type:                  d

      1 groups of CGTOs of s type
      1 groups of CGTOs of p type
      1 groups of CGTOs of d type

    nuclear coordinates (in a.u.) are :

    O #1        0.000000000000000        0.000000000000000        0.123976448300873
  
  Atomic type number  2 :
  -----------------------

    Nuclear charge:                        1
    number of symmetry independent atoms:  1
    highest orbital type:                  p

      1 groups of CGTOs of s type
      1 groups of CGTOs of p type

    nuclear coordinates (in a.u.) are :

    H #2        0.000000000000000       -1.430968603519347       -0.983798098795531
  
   Internuclear distances (A) :

     for atom O #1 (coordinates :   0.00000   0.00000   0.12398)

     H #2   1     distance is  0.958

     for atom H #2 (coordinates :   0.00000  -1.43097  -0.98380)

     H #2   3     distance is  1.514

   Group multiplication table :

         1   2   3   4
         2   1   4   3
         3   4   1   2
         4   3   2   1

   Gaussian basis information :

   atom                 exponent      coefficients

 O #1  1    S   
+                 1   11720.000000   0.0007100  -0.0001600   0.0000000
                  2    1759.000000   0.0054700  -0.0012630   0.0000000
                  3     400.800000   0.0278370  -0.0062670   0.0000000
                  4     113.700000   0.1048000  -0.0257160   0.0000000
                  5      37.030000   0.2830620  -0.0709240   0.0000000
                  6      13.270000   0.4487190  -0.1654110   0.0000000
                  7       5.025000   0.2709520  -0.1169550   0.0000000
                  8       1.013000   0.0154580   0.5573680   0.0000000
                  9       0.302300  -0.0025850   0.5727590   1.0000000

 O #1  1    X   
+                10      17.700000   0.0430180   0.0000000
                 11       3.854000   0.2289130   0.0000000
                 12       1.046000   0.5087280   0.0000000
                 13       0.275300   0.4605310   1.0000000

 O #1  1    Y   
+                14      17.700000   0.0430180   0.0000000
                 15       3.854000   0.2289130   0.0000000
                 16       1.046000   0.5087280   0.0000000
                 17       0.275300   0.4605310   1.0000000

 O #1  1    Z   
+                18      17.700000   0.0430180   0.0000000
                 19       3.854000   0.2289130   0.0000000
                 20       1.046000   0.5087280   0.0000000
                 21       0.275300   0.4605310   1.0000000

 O #1  1    XX  
+                22       1.185000   1.0000000

 O #1  1    XY  
+                23       1.185000   1.0000000

 O #1  1    XZ  
+                24       1.185000   1.0000000

 O #1  1    YY  
+                25       1.185000   1.0000000

 O #1  1    YZ  
+                26       1.185000   1.0000000

 O #1  1    ZZ  
+                27       1.185000   1.0000000

 H #2  1    S   
+                28      13.010000   0.0196850   0.0000000
                 29       1.962000   0.1379770   0.0000000
                 30       0.444600   0.4781480   0.0000000
                 31       0.122000   0.5012400   1.0000000

 H #2  3    S   
+                32      13.010000   0.0196850   0.0000000
                 33       1.962000   0.1379770   0.0000000
                 34       0.444600   0.4781480   0.0000000
                 35       0.122000   0.5012400   1.0000000

 H #2  1    X   
+                36       0.727000   1.0000000

 H #2  3    X   
+                37       0.727000   1.0000000

 H #2  1    Y   
+                38       0.727000   1.0000000

 H #2  3    Y   
+                39       0.727000   1.0000000

 H #2  1    Z   
+                40       0.727000   1.0000000

 H #2  3    Z   
+                41       0.727000   1.0000000
 25 24
  1  2  3  4  5  6  7***  8  9 10 11 12 13 14 15 16 17 18 19 20 21 22 23 24
1

             SYMMETRY TRANSFORMATION INFO
             24 SYMMETRY ADAPTED BASIS FUNCTIONS 


          irreducible representation number 1

    1    1  O #1     1s     1   1   1.0
    2    2  O #1     1s     1   2   1.0
    3    3  O #1     1s     1   3   1.0
    4    4  O #1     2pz    1   8   1.0
    5    5  O #1     2pz    1   9   1.0
    6    6  O #1     3d2-   3  10  -1.0  13  -1.0  15   2.0
    7    7  O #1     3d1+   2  10   1.0  13  -1.0
    8    8  H #2     1s     2  16   1.0  17   1.0
    9    9  H #2     1s     2  18   1.0  19   1.0
   10   10  H #2     2py    2  22   1.0  23  -1.0
   11   11  H #2     2pz    2  24   1.0  25   1.0


          irreducible representation number 2

   12    1  O #1     2px    1   4   1.0
   13    2  O #1     2px    1   5   1.0
   14    3  O #1     3d0    1  12   1.0
   15    4  H #2     2px    2  20   1.0  21   1.0


          irreducible representation number 3

   16    1  O #1     2py    1   6   1.0
   17    2  O #1     2py    1   7   1.0
   18    3  O #1     3d2+   1  14   1.0
   19    4  H #2     1s     2  16   1.0  17  -1.0
   20    5  H #2     1s     2  18   1.0  19  -1.0
   21    6  H #2     2py    2  22   1.0  23   1.0
   22    7  H #2     2pz    2  24   1.0  25  -1.0


          irreducible representation number 4

   23    1  O #1     3d1-   1  11   1.0
   24    2  H #2     2px    2  20   1.0  21  -1.0
  Nuclear repulsion energy :    9.1908990288 a.u.
  required memory for a1 array                5013204  words 
  required memory for a2 array                2046060  words 
 @GETMEM-I,  Allocated      69 MB of main memory.
  @MOLECU-I, One electron integrals (CPU/WALL):        0.02/       0.05 seconds.
  @TWOEL-I,       2350 integrals of symmetry type  I I I I
  @TWOEL-I,       4467 integrals of symmetry type  I J I J
  @TWOEL-I,       2860 integrals of symmetry type  I I J J
  @TWOEL-I,       1735 integrals of symmetry type  I J K L
  @TWOEL-I, Total number of 2-e integrals      11412.
  @MOLECU-I, Two electron integrals (CPU/WALL):        0.02/       0.22 seconds.
  @CHECKOUT-I, Total execution time (CPU/WALL):        0.05/       0.64 seconds.
--executable xvmol finished with status     0 in        0.90 seconds (walltime).
 --invoking executable--
/home/nike/cfour_v2.00beta/bin/xvmol2ja
 @GETMEM-I,  Allocated    3814 MB of main memory.
  @CHECKOUT-I, Total execution time (CPU/WALL):        0.00/       0.10 seconds.
--executable xvmol2ja finished with status     0 in        0.34 seconds (walltime).
 --invoking executable--
/home/nike/cfour_v2.00beta/bin/xvscf
  There are   24 functions in the AO basis.

  There are 4 irreducible representations.

       Irrep        # of functions
         1                 11
         2                  4
         3                  7
         4                  2


  Parameters for SCF calculation: 
        SCF reference function:  RHF  
  Maximum number of iterations: 9999
     Full symmetry point group: C2v 
     Computational point group: C2v 
        Initial density matrix: MOREAD                 
     SCF convergence tolerance: 10**(-12)
  DIIS convergence acceleration:  ON
          Latest start for DIIS:   5
                     DIIS order:   6

  Memory information:      62156 words required.
  Fock matrices are constructed from AO integral file.
 @GETMEM-I,  Allocated       0 MB of main memory.
  Initialization and symmetry analysis required      0.002 seconds.

  @INITGES-I, Occupancies from core Hamiltonian:

          Alpha population by irrep:   3    1    1    0
           Beta population by irrep:   3    1    1    0


 total no. of electrons in initial guess :  0.000000000000000E+000
  --------------------------------------------------------------------
  Iteration         Total Energy            Largest Density Difference
  --------------------------------------------------------------------
       0             9.190899028787092              0.0000000000D+00
   current occupation vector 
     3  1  1  0
     3  1  1  0
  processed                   2350  ao basis integrals from 
                     4  buffers.
  processed                   2860  ao basis integrals from 
                     5  buffers.
  processed                   4467  ao basis integrals from 
                     8  buffers.
       1           -68.873721277560634              0.9716017490D+01
   current occupation vector 
     3  1  1  0
     3  1  1  0
  processed                   2350  ao basis integrals from 
                     4  buffers.
  processed                   2860  ao basis integrals from 
                     5  buffers.
  processed                   4467  ao basis integrals from 
                     8  buffers.
       2           -69.950754911185882              0.9395020760D+01
   current occupation vector 
     3  0  2  0
     3  0  2  0
  processed                   2350  ao basis integrals from 
                     4  buffers.
  processed                   2860  ao basis integrals from 
                     5  buffers.
  processed                   4467  ao basis integrals from 
                     8  buffers.
       3           -73.306633522057652              0.7151500073D+01
   current occupation vector 
     3  1  1  0
     3  1  1  0
  processed                   2350  ao basis integrals from 
                     4  buffers.
  processed                   2860  ao basis integrals from 
                     5  buffers.
  processed                   4467  ao basis integrals from 
                     8  buffers.
       4           -73.428086475888094              0.3770469625D+01
   current occupation vector 
     4  0  1  0
     4  0  1  0
 
 sum over diagonal and offdiagdiagonal of C(T)*S*C for irrep
                     1
 -3.230749001659206E-014 -4.163702768797319E-014
 reorthoganalization of MOs is carried out
 sum over diagonal and offdiagdiagonal of C(T)*S*C for irrep
                     1
 -1.776356839400250E-015 -8.951557688998378E-015
 
 sum over diagonal and offdiagdiagonal of C(T)*S*C for irrep
                     2
  4.440892098500626E-016  4.167673151034279E-015
 reorthoganalization of MOs is carried out
 sum over diagonal and offdiagdiagonal of C(T)*S*C for irrep
                     2
  9.992007221626409E-016 -1.275021754842953E-016
 
 sum over diagonal and offdiagdiagonal of C(T)*S*C for irrep
                     3
  1.088018564132653E-014 -6.721619788541133E-015
 reorthoganalization of MOs is carried out
 sum over diagonal and offdiagdiagonal of C(T)*S*C for irrep
                     3
 -6.661338147750939E-016 -4.280430176972772E-016
 
 sum over diagonal and offdiagdiagonal of C(T)*S*C for irrep
                     4
 -1.776356839400250E-015  1.110223024625157E-016
 reorthoganalization of MOs is carried out
 sum over diagonal and offdiagdiagonal of C(T)*S*C for irrep
                     4
 -2.220446049250313E-016  5.551115123125783E-017
  processed                   2350  ao basis integrals from 
                     4  buffers.
  processed                   2860  ao basis integrals from 
                     5  buffers.
  processed                   4467  ao basis integrals from 
                     8  buffers.
       5           -74.695756411330592              0.3231299498D+01
   current occupation vector 
     3  1  1  0
     3  1  1  0
  processed                   2350  ao basis integrals from 
                     4  buffers.
  processed                   2860  ao basis integrals from 
                     5  buffers.
  processed                   4467  ao basis integrals from 
                     8  buffers.
       6           -75.944040791946449              0.1472756924D+01
   current occupation vector 
     3  1  1  0
     3  1  1  0
  processed                   2350  ao basis integrals from 
                     4  buffers.
  processed                   2860  ao basis integrals from 
                     5  buffers.
  processed                   4467  ao basis integrals from 
                     8  buffers.
       7           -76.025980441791887              0.3910391383D+00
   current occupation vector 
     3  1  1  0
     3  1  1  0
  processed                   2350  ao basis integrals from 
                     4  buffers.
  processed                   2860  ao basis integrals from 
                     5  buffers.
  processed                   4467  ao basis integrals from 
                     8  buffers.
       8           -76.026738108559542              0.3094113969D-01
   current occupation vector 
     3  1  1  0
     3  1  1  0
  processed                   2350  ao basis integrals from 
                     4  buffers.
  processed                   2860  ao basis integrals from 
                     5  buffers.
  processed                   4467  ao basis integrals from 
                     8  buffers.
       9           -76.026777798445835              0.7934313422D-02
   current occupation vector 
     3  1  1  0
     3  1  1  0
 
 sum over diagonal and offdiagdiagonal of C(T)*S*C for irrep
                     1
 -2.209343819004062E-014  1.206474088927094E-014
 reorthoganalization of MOs is carried out
 sum over diagonal and offdiagdiagonal of C(T)*S*C for irrep
                     1
 -1.554312234475219E-015 -4.030477530501606E-015
 
 sum over diagonal and offdiagdiagonal of C(T)*S*C for irrep
                     2
  7.105427357601002E-015 -4.772874803715688E-015
 reorthoganalization of MOs is carried out
 sum over diagonal and offdiagdiagonal of C(T)*S*C for irrep
                     2
 -4.440892098500626E-016  1.875669758399923E-016
 
 sum over diagonal and offdiagdiagonal of C(T)*S*C for irrep
                     3
  1.942890293094024E-014  2.531720492970901E-015
 reorthoganalization of MOs is carried out
 sum over diagonal and offdiagdiagonal of C(T)*S*C for irrep
                     3
  4.440892098500626E-016  1.303102591110328E-015
 
 sum over diagonal and offdiagdiagonal of C(T)*S*C for irrep
                     4
 -1.110223024625157E-015 -2.359223927328458E-016
 reorthoganalization of MOs is carried out
 sum over diagonal and offdiagdiagonal of C(T)*S*C for irrep
                     4
  2.220446049250313E-016 -2.775557561562891E-017
  processed                   2350  ao basis integrals from 
                     4  buffers.
  processed                   2860  ao basis integrals from 
                     5  buffers.
  processed                   4467  ao basis integrals from 
                     8  buffers.
      10           -76.026778734237737              0.1341661168D-02
   current occupation vector 
     3  1  1  0
     3  1  1  0
  processed                   2350  ao basis integrals from 
                     4  buffers.
  processed                   2860  ao basis integrals from 
                     5  buffers.
  processed                   4467  ao basis integrals from 
                     8  buffers.
      11           -76.026778795169932              0.5288408143D-03
   current occupation vector 
     3  1  1  0
     3  1  1  0
  processed                   2350  ao basis integrals from 
                     4  buffers.
  processed                   2860  ao basis integrals from 
                     5  buffers.
  processed                   4467  ao basis integrals from 
                     8  buffers.
      12           -76.026778796150708              0.4558086913D-04
   current occupation vector 
     3  1  1  0
     3  1  1  0
  processed                   2350  ao basis integrals from 
                     4  buffers.
  processed                   2860  ao basis integrals from 
                     5  buffers.
  processed                   4467  ao basis integrals from 
                     8  buffers.
      13           -76.026778796183663              0.1027451661D-04
   current occupation vector 
     3  1  1  0
     3  1  1  0
  processed                   2350  ao basis integrals from 
                     4  buffers.
  processed                   2860  ao basis integrals from 
                     5  buffers.
  processed                   4467  ao basis integrals from 
                     8  buffers.
      14           -76.026778796184516              0.1591352845D-05
   current occupation vector 
     3  1  1  0
     3  1  1  0
 
 sum over diagonal and offdiagdiagonal of C(T)*S*C for irrep
                     1
 -2.131628207280301E-014  6.155500236046038E-015
 reorthoganalization of MOs is carried out
 sum over diagonal and offdiagdiagonal of C(T)*S*C for irrep
                     1
  8.881784197001252E-016 -5.710638532148080E-015
 
 sum over diagonal and offdiagdiagonal of C(T)*S*C for irrep
                     2
 -1.887379141862766E-015 -5.100954381109801E-015
 reorthoganalization of MOs is carried out
 sum over diagonal and offdiagdiagonal of C(T)*S*C for irrep
                     2
  5.551115123125783E-016  1.537398680584445E-016
 
 sum over diagonal and offdiagdiagonal of C(T)*S*C for irrep
                     3
  1.809663530139005E-014 -2.861317953406495E-015
 reorthoganalization of MOs is carried out
 sum over diagonal and offdiagdiagonal of C(T)*S*C for irrep
                     3
 -8.881784197001252E-016 -1.711955230354612E-015
 
 sum over diagonal and offdiagdiagonal of C(T)*S*C for irrep
                     4
 -1.110223024625157E-016 -2.359223927328458E-016
 reorthoganalization of MOs is carried out
 sum over diagonal and offdiagdiagonal of C(T)*S*C for irrep
                     4
 -1.110223024625157E-016  1.387778780781446E-017
  processed                   2350  ao basis integrals from 
                     4  buffers.
  processed                   2860  ao basis integrals from 
                     5  buffers.
  processed                   4467  ao basis integrals from 
                     8  buffers.
      15           -76.026778796184701              0.2144307585D-06
   current occupation vector 
     3  1  1  0
     3  1  1  0
  processed                   2350  ao basis integrals from 
                     4  buffers.
  processed                   2860  ao basis integrals from 
                     5  buffers.
  processed                   4467  ao basis integrals from 
                     8  buffers.
      16           -76.026778796184544              0.1038021409D-06
   current occupation vector 
     3  1  1  0
     3  1  1  0
  processed                   2350  ao basis integrals from 
                     4  buffers.
  processed                   2860  ao basis integrals from 
                     5  buffers.
  processed                   4467  ao basis integrals from 
                     8  buffers.
      17           -76.026778796184473              0.9082153252D-08
   current occupation vector 
     3  1  1  0
     3  1  1  0
  processed                   2350  ao basis integrals from 
                     4  buffers.
  processed                   2860  ao basis integrals from 
                     5  buffers.
  processed                   4467  ao basis integrals from 
                     8  buffers.
      18           -76.026778796184459              0.1672645134D-08
   current occupation vector 
     3  1  1  0
     3  1  1  0
  processed                   2350  ao basis integrals from 
                     4  buffers.
  processed                   2860  ao basis integrals from 
                     5  buffers.
  processed                   4467  ao basis integrals from 
                     8  buffers.
      19           -76.026778796184459              0.5945808290D-09
   current occupation vector 
     3  1  1  0
     3  1  1  0
 
 sum over diagonal and offdiagdiagonal of C(T)*S*C for irrep
                     1
 -2.675637489346627E-014  4.619521182681191E-015
 reorthoganalization of MOs is carried out
 sum over diagonal and offdiagdiagonal of C(T)*S*C for irrep
                     1
 -1.776356839400250E-015  1.516853049415845E-015
 
 sum over diagonal and offdiagdiagonal of C(T)*S*C for irrep
                     2
 -1.221245327087672E-015 -1.588573023125761E-015
 reorthoganalization of MOs is carried out
 sum over diagonal and offdiagdiagonal of C(T)*S*C for irrep
                     2
 -7.771561172376096E-016  4.358492733391728E-017
 
 sum over diagonal and offdiagdiagonal of C(T)*S*C for irrep
                     3
  5.773159728050814E-015 -5.268680457193309E-015
 reorthoganalization of MOs is carried out
 sum over diagonal and offdiagdiagonal of C(T)*S*C for irrep
                     3
  0.000000000000000E+000 -5.312590645178972E-018
 
 sum over diagonal and offdiagdiagonal of C(T)*S*C for irrep
                     4
 -8.881784197001252E-016 -1.387778780781446E-017
 reorthoganalization of MOs is carried out
 sum over diagonal and offdiagdiagonal of C(T)*S*C for irrep
                     4
  2.220446049250313E-016 -1.387778780781446E-017
  processed                   2350  ao basis integrals from 
                     4  buffers.
  processed                   2860  ao basis integrals from 
                     5  buffers.
  processed                   4467  ao basis integrals from 
                     8  buffers.
      20           -76.026778796184715              0.1318032350D-09
   current occupation vector 
     3  1  1  0
     3  1  1  0
  processed                   2350  ao basis integrals from 
                     4  buffers.
  processed                   2860  ao basis integrals from 
                     5  buffers.
  processed                   4467  ao basis integrals from 
                     8  buffers.
      21           -76.026778796184487              0.3029110296D-10
   current occupation vector 
     3  1  1  0
     3  1  1  0
  processed                   2350  ao basis integrals from 
                     4  buffers.
  processed                   2860  ao basis integrals from 
                     5  buffers.
  processed                   4467  ao basis integrals from 
                     8  buffers.
      22           -76.026778796184360              0.2006839139D-11
   current occupation vector 
     3  1  1  0
     3  1  1  0

  SCF has converged.

 Density matrix saved to file den.dat
 total electron number:   9.99999999999999     
  processed                   2350  ao basis integrals from 
                     4  buffers.
  processed                   2860  ao basis integrals from 
                     5  buffers.
  processed                   4467  ao basis integrals from 
                     8  buffers.
     E(SCF)=       -76.026778796184445              0.3399502901D-12


  ORBITAL EIGENVECTORS

  SYMMETRY BLOCK 1 (ALPHA)

                          MO #  1       MO #  2       MO #  3       MO #  4

    BASIS/ORB E          -20.55049      -1.33650      -0.56651       0.18551
                        ----------    ----------    ----------    ----------
    1; O #1                1.00040       0.00820       0.00216       0.05203
    2; O #1                0.00231      -0.87046      -0.29552      -0.14270
    3; O #1               -0.00140       0.12262      -0.18043      -0.92056
    4; O #1               -0.00257       0.11477      -0.79475       0.27774
    5; O #1                0.00167      -0.06589       0.00064       0.20919
    6; O #1                0.00000      -0.00036       0.00516      -0.00217
    7; O #1               -0.00007       0.00151      -0.00230       0.00499
    8; H #2               -0.00041      -0.32921       0.35122       0.10043
    9; H #2                0.00063       0.15492      -0.13566       0.77882
   10; H #2               -0.00057      -0.03731       0.03176       0.01754
   11; H #2               -0.00048      -0.02047      -0.00753       0.01632


                          MO #  5       MO #  6       MO #  7       MO #  8

    BASIS/ORB E            0.85399       1.16354       1.44463       1.86737
                        ----------    ----------    ----------    ----------
    1; O #1                0.06515       0.00315       0.20193       0.72411
    2; O #1                0.50289       0.22540       1.04032       3.13106
    3; O #1               -0.60761       0.61935      -1.10212      -4.82552
    4; O #1               -0.47964       1.09941       0.19316       0.15961
    5; O #1                0.23037      -1.78507      -0.82879       0.89430
    6; O #1               -0.00027       0.00369      -0.03386       0.03296
    7; O #1                0.05351       0.00334      -0.00238      -0.05407
    8; H #2               -1.34057      -0.92973      -0.56707       1.40946
    9; H #2                1.21985       0.35290       0.49374      -0.31853
   10; H #2                0.29583      -0.08438      -0.32939       0.37305
   11; H #2                0.05915      -0.25094       0.54546      -0.02340


                          MO #  9       MO # 10       MO # 11

    BASIS\ORB E            2.48947       3.51007       3.86548
                        ----------    ----------    ----------
    1; O #1                0.27767       0.08422       0.14288
    2; O #1                1.43100       0.30309       0.34631
    3; O #1               -0.02560      -0.73330      -2.46586
    4; O #1               -0.97508       0.02833       0.58950
    5; O #1                0.26905       0.52540       0.64970
    6; O #1               -0.01534      -0.31308      -0.03873
    7; O #1                0.10867      -0.08746       0.57996
    8; H #2               -0.81445       0.52269       2.10608
    9; H #2                0.24929      -0.22398      -0.86392
   10; H #2               -0.74463       0.35293       0.62049
   11; H #2               -0.53679      -0.31483       0.49339


  SYMMETRY BLOCK 2 (ALPHA)

                          MO # 12       MO # 13       MO # 14       MO # 15

    BASIS/ORB E           -0.49312       1.20038       1.67459       3.28535
                        ----------    ----------    ----------    ----------
   12; O #1                0.91966       1.41017       0.02866       0.01690
   13; O #1                0.07214      -1.67438       0.62063      -0.31928
   14; O #1               -0.01820      -0.00350       0.16080       1.04273
   15; H #2                0.03107      -0.00843      -0.76704       0.39820


  SYMMETRY BLOCK 3 (ALPHA)

                          MO # 16       MO # 17       MO # 18       MO # 19

    BASIS/ORB E           -0.69909       0.25620       0.78904       1.25333
                        ----------    ----------    ----------    ----------
   16; O #1                0.71385       0.41273       0.39055       1.06975
   17; O #1               -0.10678       0.48092       0.28083      -2.25662
   18; O #1               -0.02680      -0.02124       0.11170       0.04452
   19; H #2               -0.55803       0.04428       1.60697      -0.64544
   20; H #2                0.18987       1.42160      -1.49205      -0.50146
   21; H #2               -0.02332       0.02082      -0.07391      -0.30277
   22; H #2               -0.03266       0.01713      -0.15283      -0.18655


                          MO # 20       MO # 21       MO # 22

    BASIS\ORB E            1.93452       2.45202       4.14711
                        ----------    ----------    ----------
   16; O #1                0.01543       1.22247       0.68267
   17; O #1               -0.90879      -0.41026       0.82991
   18; O #1               -0.02936       0.13848      -1.32540
   19; H #2               -0.65985       0.50218       1.84797
   20; H #2                0.23919       0.07832      -0.63779
   21; H #2                0.47167       0.72425       0.60592
   22; H #2               -0.69314       0.55502       0.49356


  SYMMETRY BLOCK 4 (ALPHA)

                          MO # 23       MO # 24

    BASIS\ORB E            1.47617       3.33855
                        ----------    ----------
   23; O #1                0.13131       1.06614
   24; H #2               -0.68558       0.37133


 @PUTMOS-I, Writing converged MOs to NEWMOS. 
 @PUTMOS-I, Symmetry   1 Full Blocks  2 Partial Blocksize   3
 @PUTMOS-I, Symmetry   2 Full Blocks  1 Partial Blocksize   0
 @PUTMOS-I, Symmetry   3 Full Blocks  1 Partial Blocksize   3
 @PUTMOS-I, Symmetry   4 Full Blocks  0 Partial Blocksize   2
--------------------------------------------------------------------------------
Eigenvalue    -20.550495     -1.336500     -0.699089     -0.566509     -0.493120
 Symmetry          A1            A1            B2            A1            B1    
--------------------------------------------------------------------------------
   1 S         1.0003996     0.0081990     0.0000000     0.0021628     0.0000000
   1 S         0.0023062    -0.8704581     0.0000000    -0.2955189     0.0000000
   1 S        -0.0014027     0.1226234     0.0000000    -0.1804329     0.0000000
   1 PX        0.0000000     0.0000000     0.0000000     0.0000000     0.9196602
   1 PY        0.0000000     0.0000000     0.7138485     0.0000000     0.0000000
   1 PZ       -0.0025672     0.1147660     0.0000000    -0.7947518     0.0000000
   1 PX        0.0000000     0.0000000     0.0000000     0.0000000     0.0721369
   1 PY        0.0000000     0.0000000    -0.1067788     0.0000000     0.0000000
   1 PZ        0.0016671    -0.0658934     0.0000000     0.0006388     0.0000000
   1 DX2      -0.0000720     0.0018641     0.0000000    -0.0074563     0.0000000
   1 DXY       0.0000000     0.0000000     0.0000000     0.0000000     0.0000000
   1 DXZ       0.0000000     0.0000000     0.0000000     0.0000000    -0.0182009
   1 DY2       0.0000657    -0.0011475     0.0000000    -0.0028611     0.0000000
   1 DYZ       0.0000000     0.0000000    -0.0267971     0.0000000     0.0000000
   1 DZZ       0.0000063    -0.0007166     0.0000000     0.0103174     0.0000000
   2 S        -0.0004078    -0.3292131    -0.5580341     0.3512179     0.0000000
   2 S         0.0006258     0.1549215     0.1898702    -0.1356595     0.0000000
   2 PX        0.0000000     0.0000000     0.0000000     0.0000000     0.0310654
   2 PY       -0.0005707    -0.0373093    -0.0233215     0.0317569     0.0000000
   2 PZ       -0.0004814    -0.0204722    -0.0326617    -0.0075333     0.0000000
   3 S        -0.0004078    -0.3292131     0.5580341     0.3512179     0.0000000
   3 S         0.0006258     0.1549215    -0.1898702    -0.1356595     0.0000000
   3 PX        0.0000000     0.0000000     0.0000000     0.0000000     0.0310654
   3 PY        0.0005707     0.0373093    -0.0233215    -0.0317569     0.0000000
   3 PZ       -0.0004814    -0.0204722     0.0326617    -0.0075333     0.0000000
--------------------------------------------------------------------------------
Eigenvalue      0.185505      0.256198      0.789036      0.853990      1.163536
 Symmetry          A1            B2            B2            A1            A1    
--------------------------------------------------------------------------------
   1 S         0.0520296     0.0000000     0.0000000     0.0651504     0.0031457
   1 S        -0.1426969     0.0000000     0.0000000     0.5028933     0.2253988
   1 S        -0.9205606     0.0000000     0.0000000    -0.6076132     0.6193520
   1 PX        0.0000000     0.0000000     0.0000000     0.0000000     0.0000000
   1 PY        0.0000000     0.4127275     0.3905460     0.0000000     0.0000000
   1 PZ        0.2777365     0.0000000     0.0000000    -0.4796369     1.0994137
   1 PX        0.0000000     0.0000000     0.0000000     0.0000000     0.0000000
   1 PY        0.0000000     0.4809174     0.2808347     0.0000000     0.0000000
   1 PZ        0.2091947     0.0000000     0.0000000     0.2303706    -1.7850720
   1 DX2       0.0071580     0.0000000     0.0000000     0.0537720    -0.0003481
   1 DXY       0.0000000     0.0000000     0.0000000     0.0000000     0.0000000
   1 DXZ       0.0000000     0.0000000     0.0000000     0.0000000     0.0000000
   1 DY2      -0.0028124     0.0000000     0.0000000    -0.0532388    -0.0070363
   1 DYZ       0.0000000    -0.0212393     0.1117015     0.0000000     0.0000000
   1 DZZ      -0.0043455     0.0000000     0.0000000    -0.0005332     0.0073844
   2 S         0.1004325     0.0442752     1.6069696    -1.3405696    -0.9297298
   2 S         0.7788236     1.4216048    -1.4920482     1.2198478     0.3529030
   2 PX        0.0000000     0.0000000     0.0000000     0.0000000     0.0000000
   2 PY        0.0175353     0.0208158    -0.0739123     0.2958348    -0.0843848
   2 PZ        0.0163159     0.0171350    -0.1528331     0.0591458    -0.2509385
   3 S         0.1004325    -0.0442752    -1.6069696    -1.3405696    -0.9297298
   3 S         0.7788236    -1.4216048     1.4920482     1.2198478     0.3529030
   3 PX        0.0000000     0.0000000     0.0000000     0.0000000     0.0000000
   3 PY       -0.0175353     0.0208158    -0.0739123    -0.2958348     0.0843848
   3 PZ        0.0163159    -0.0171350     0.1528331     0.0591458    -0.2509385
--------------------------------------------------------------------------------
Eigenvalue      1.200381      1.253327      1.444629      1.476173      1.674591
 Symmetry          B1            B2            A1            A2            B1    
--------------------------------------------------------------------------------
   1 S         0.0000000     0.0000000     0.2019306     0.0000000     0.0000000
   1 S         0.0000000     0.0000000     1.0403159     0.0000000     0.0000000
   1 S         0.0000000     0.0000000    -1.1021169     0.0000000     0.0000000
   1 PX        1.4101685     0.0000000     0.0000000     0.0000000     0.0286644
   1 PY        0.0000000     1.0697515     0.0000000     0.0000000     0.0000000
   1 PZ        0.0000000     0.0000000     0.1931609     0.0000000     0.0000000
   1 PX       -1.6743820     0.0000000     0.0000000     0.0000000     0.6206259
   1 PY        0.0000000    -2.2566192     0.0000000     0.0000000     0.0000000
   1 PZ        0.0000000     0.0000000    -0.8287880     0.0000000     0.0000000
   1 DX2       0.0000000     0.0000000     0.0314798     0.0000000     0.0000000
   1 DXY       0.0000000     0.0000000     0.0000000     0.1313084     0.0000000
   1 DXZ      -0.0035008     0.0000000     0.0000000     0.0000000     0.1607991
   1 DY2       0.0000000     0.0000000     0.0362351     0.0000000     0.0000000
   1 DYZ       0.0000000     0.0445183     0.0000000     0.0000000     0.0000000
   1 DZZ       0.0000000     0.0000000    -0.0677148     0.0000000     0.0000000
   2 S         0.0000000    -0.6454440    -0.5670691     0.0000000     0.0000000
   2 S         0.0000000    -0.5014602     0.4937388     0.0000000     0.0000000
   2 PX       -0.0084269     0.0000000     0.0000000    -0.6855819    -0.7670450
   2 PY        0.0000000    -0.3027662    -0.3293936     0.0000000     0.0000000
   2 PZ        0.0000000    -0.1865490     0.5454611     0.0000000     0.0000000
   3 S         0.0000000     0.6454440    -0.5670691     0.0000000     0.0000000
   3 S         0.0000000     0.5014602     0.4937388     0.0000000     0.0000000
   3 PX       -0.0084269     0.0000000     0.0000000     0.6855819    -0.7670450
   3 PY        0.0000000    -0.3027662     0.3293936     0.0000000     0.0000000
   3 PZ        0.0000000     0.1865490     0.5454611     0.0000000     0.0000000
--------------------------------------------------------------------------------
Eigenvalue      1.867374      1.934517      2.452016      2.489465      3.285353
 Symmetry          A1            B2            B2            A1            B1    
--------------------------------------------------------------------------------
   1 S         0.7241056     0.0000000     0.0000000     0.2776696     0.0000000
   1 S         3.1310586     0.0000000     0.0000000     1.4309975     0.0000000
   1 S        -4.8255161     0.0000000     0.0000000    -0.0256050     0.0000000
   1 PX        0.0000000     0.0000000     0.0000000     0.0000000     0.0169007
   1 PY        0.0000000     0.0154307     1.2224675     0.0000000     0.0000000
   1 PZ        0.1596071     0.0000000     0.0000000    -0.9750817     0.0000000
   1 PX        0.0000000     0.0000000     0.0000000     0.0000000    -0.3192784
   1 PY        0.0000000    -0.9087885    -0.4102626     0.0000000     0.0000000
   1 PZ        0.8942986     0.0000000     0.0000000     0.2690532     0.0000000
   1 DX2      -0.0870338     0.0000000     0.0000000     0.1240051     0.0000000
   1 DXY       0.0000000     0.0000000     0.0000000     0.0000000     0.0000000
   1 DXZ       0.0000000     0.0000000     0.0000000     0.0000000     1.0427253
   1 DY2       0.0211129     0.0000000     0.0000000    -0.0933272     0.0000000
   1 DYZ       0.0000000    -0.0293595     0.1384764     0.0000000     0.0000000
   1 DZZ       0.0659209     0.0000000     0.0000000    -0.0306779     0.0000000
   2 S         1.4094627    -0.6598512     0.5021802    -0.8144466     0.0000000
   2 S        -0.3185296     0.2391886     0.0783155     0.2492939     0.0000000
   2 PX        0.0000000     0.0000000     0.0000000     0.0000000     0.3981957
   2 PY        0.3730497     0.4716671     0.7242483    -0.7446339     0.0000000
   2 PZ       -0.0234022    -0.6931433     0.5550183    -0.5367870     0.0000000
   3 S         1.4094627     0.6598512    -0.5021802    -0.8144466     0.0000000
   3 S        -0.3185296    -0.2391886    -0.0783155     0.2492939     0.0000000
   3 PX        0.0000000     0.0000000     0.0000000     0.0000000     0.3981957
   3 PY       -0.3730497     0.4716671     0.7242483     0.7446339     0.0000000
   3 PZ       -0.0234022     0.6931433    -0.5550183    -0.5367870     0.0000000
--------------------------------------------------------------------------------
Eigenvalue      3.338545      3.510071      3.865482      4.147105
 Symmetry          A2            A1            A1            B2    
--------------------------------------------------------------------------------
   1 S         0.0000000     0.0842233     0.1428796     0.0000000
   1 S         0.0000000     0.3030921     0.3463142     0.0000000
   1 S         0.0000000    -0.7332988    -2.4658620     0.0000000
   1 PX        0.0000000     0.0000000     0.0000000     0.0000000
   1 PY        0.0000000     0.0000000     0.0000000     0.6826694
   1 PZ        0.0000000     0.0283270     0.5895018     0.0000000
   1 PX        0.0000000     0.0000000     0.0000000     0.0000000
   1 PY        0.0000000     0.0000000     0.0000000     0.8299109
   1 PZ        0.0000000     0.5254034     0.6496956     0.0000000
   1 DX2       0.0000000     0.2256203     0.6186941     0.0000000
   1 DXY       1.0661393     0.0000000     0.0000000     0.0000000
   1 DXZ       0.0000000     0.0000000     0.0000000     0.0000000
   1 DY2       0.0000000     0.4005351    -0.5412329     0.0000000
   1 DYZ       0.0000000     0.0000000     0.0000000    -1.3254038
   1 DZZ       0.0000000    -0.6261554    -0.0774612     0.0000000
   2 S         0.0000000     0.5226912     2.1060838     1.8479737
   2 S         0.0000000    -0.2239779    -0.8639226    -0.6377861
   2 PX        0.3713290     0.0000000     0.0000000     0.0000000
   2 PY        0.0000000     0.3529339     0.6204894     0.6059249
   2 PZ        0.0000000    -0.3148330     0.4933878     0.4935574
   3 S         0.0000000     0.5226912     2.1060838    -1.8479737
   3 S         0.0000000    -0.2239779    -0.8639226     0.6377861
   3 PX       -0.3713290     0.0000000     0.0000000     0.0000000
   3 PY        0.0000000    -0.3529339    -0.6204894     0.6059249
   3 PZ        0.0000000    -0.3148330     0.4933878    -0.4935574
--------------------------------------------------------------------------------


 
  ORBITAL EIGENVALUES (ALPHA)  (1H = 27.2113838 eV)

       MO #        E(hartree)               E(eV)           FULLSYM    COMPSYM
       ----   --------------------   --------------------   -------   ---------
    1     1         -20.5504949842        -559.2074066962      A1        A1 (1)
    2     2          -1.3364997371         -36.3680073197      A1        A1 (1)
    3    16          -0.6990888294         -19.0231744614      B2        B2 (3)
    4     3          -0.5665092732         -15.4155012715      A1        A1 (1)
    5    12          -0.4931203423         -13.4184869023      B1        B1 (2)
  +++++++++++++++++++++++++++++++++++++++++++++++++++++++++++++++++++++++++++++
    6     4           0.1855054547           5.0478601280      A1        A1 (1)
    7    17           0.2561977677           6.9714957900      B2        B2 (3)
    8    18           0.7890360049          21.4707615772      B2        B2 (3)
    9     5           0.8539895457          23.2382373060      A1        A1 (1)
   10     6           1.1635362202          31.6614306755      A1        A1 (1)
   11    13           1.2003812959          32.6640361717      B1        B1 (2)
   12    19           1.2533268641          34.1047583494      B2        B2 (3)
   13     7           1.4446287482          39.3103473429      A1        A1 (1)
   14    23           1.4761731132          40.1687131674      A2        A2 (4)
   15    14           1.6745907864          45.5679326304      B1        B1 (2)
   16     8           1.8673741263          50.8138340861      A1        A1 (1)
   17    20           1.9345165099          52.6408712567      B2        B2 (3)
   18    21           2.4520159095          66.7227460461      B2        B2 (3)
   19     9           2.4894651038          67.7417904461      A1        A1 (1)
   20    15           3.2853533561          89.3990111554      B1        B1 (2)
   21    24           3.3385451293          90.8464329130      A2        A2 (4)
   22    10           3.5100711827          95.5138941867      A1        A1 (1)
   23    11           3.8654824823         105.1851274749      A1        A1 (1)
   24    22           4.1471051519         112.8484700295      B2        B2 (3)


  VSCF finished.

  @CHECKOUT-I, Total execution time (CPU/WALL):        0.03/       1.82 seconds.
--executable xvscf finished with status     0 in        2.06 seconds (walltime).
 --invoking executable--
/home/nike/cfour_v2.00beta/bin/xvtran
 @GETMEM-I,  Allocated    3814 MB of main memory.
  Full RHF integral transformation
  @GTNRB2-I, There are  4 irreducible representations.
  The following   1 MOs will be dropped:
    1
  There are  23 active molecular orbitals.
  Transformation of IIII integrals :
  1 pass through the AO integral file was required.
        2350 AO integrals were read.
        2007 MO integrals were written to HF2.
  Transformation of IIJJ integrals :
  1 pass through the AO integral file was required.
        2860 AO integrals were read.
        2649 MO integrals were written to HF2.
  Transformation of IJIJ integrals :
  1 pass through the AO integral file was required.
        4467 AO integrals were read.
        4062 MO integrals were written to HF2.
  Transformation of IJKL integrals :
  1 pass through the AO integral file was required.
        1735 AO integrals were read.
        1680 MO integrals were written to HF2.
  Summary of active molecular orbitals: 
------------------------------------------------------------------------
 
  Index      Eigenvalue    Symmetry    Index      Eigenvalue    Symmetry
------------------------------------------------------------------------
     1        -1.3364997        1        13         1.2003813        2
     2        -0.5665093        1        14         1.6745908        2
     3        -0.4931203        2        15         3.2853534        2
     4        -0.6990888        3        16         0.2561978        3
     5         0.1855055        1        17         0.7890360        3
     6         0.8539895        1        18         1.2533269        3
     7         1.1635362        1        19         1.9345165        3
     8         1.4446287        1        20         2.4520159        3
     9         1.8673741        1        21         4.1471052        3
    10         2.4894651        1        22         1.4761731        4
    11         3.5100712        1        23         3.3385451        4
    12         3.8654825        1
------------------------------------------------------------------------
  @CHECKOUT-I, Total execution time (CPU/WALL):        0.01/       0.41 seconds.
--executable xvtran finished with status     0 in        0.82 seconds (walltime).
 --invoking executable--
/home/nike/cfour_v2.00beta/bin/xintprc
 @GETMEM-I,  Allocated    3814 MB of main memory.
  Processing integrals for CCSD calculation.
  @GMOIAA-I, Processing MO integrals for spin case AA.
  @GMOIAA-I, Generation of integral list completed.
                      TYPE                NUMBER
                      ----               --------
                      PPPP                  4957
                      PPPH                  3856
                      PPHH                   805
                      PHPH                   544
                      PHHH                   214
                      HHHH                    22

                     TOTAL                 10398
  @DS16AB-I, Sort of HHHHAB will be done in core.
   Words required:    1913 Words available:********.
  @ST16AB-I, Processing integral type HHHH spin case AB.
  @DS25AA-I, PHHHAA integrals will be sorted in core.
     Words required:      313  Words available: ********
  @ST25AA-I, Processing integral type PHHH spin case AA.
  @DS25AB-I, PHHHAB integrals will be sorted in core.
     Words required:     5829  Words available: ********
  @ST25AB-I, Processing integral type PHHH spin case AB.
  @STT3AA-I, Processing integral type PPHH spin case AAAA.
  @STT4AA-I, Processing integral type PHPH, spin case AAAA.
  @DS25AB-I, PPPHAB integrals will be sorted in core.
     Words required:    13084  Words available: ********
  @ST25AB-I, Processing integral type PPPH spin case AB.
  @DS16AB-I, Sort of PPPPAB will be done in core.
   Words required:   36772 Words available:********.
  @ST16AB-I, Processing integral type PPPP spin case AB.
  ALPHA EIGENVALUES 
  -1.33650  -0.56651  -0.49312  -0.69909   0.18551   0.85399   1.16354
   1.44463   1.86737   2.48947   3.51007   3.86548   1.20038   1.67459
   3.28535   0.25620   0.78904   1.25333   1.93452   2.45202   4.14711
   1.47617   3.33855
  BETA EIGENVALUES 
  -1.33650  -0.56651  -0.49312  -0.69909   0.18551   0.85399   1.16354
   1.44463   1.86737   2.48947   3.51007   3.86548   1.20038   1.67459
   3.28535   0.25620   0.78904   1.25333   1.93452   2.45202   4.14711
   1.47617   3.33855

  @FORMT2-I, Second-order MP correlation energies:
            ------------------------------------------------
            E(SCF)                  =    -76.026778796184 a.u.
            E2(AA)                  =     -0.025357151089 a.u.
            E2(AB)                  =     -0.150938043270 a.u.
            E2(TOT)                 =     -0.201652345448 a.u.
            Total MP2 energy        =    -76.228431141632 a.u.
            ------------------------------------------------
   Largest T2 amplitudes for spin case AB:
       _       _                 _       _                 _       _
   i   j   a   b             i   j   a   b             i   j   a   b
-----------------------------------------------------------------------------
[  3   3  13  13]-0.04715 [  2   2   7   7]-0.03277 [  4   4  17  17]-0.03013
[  3   2  13   7] 0.02931 [  2   3   7  13] 0.02931 [  4   4  16  16]-0.02621
[  4   4   6   6]-0.02354 [  3   4  13  18]-0.02324 [  4   3  18  13]-0.02324
[  4   3  16  13]-0.02296 [  3   4  13  16]-0.02296 [  2   2  17  17]-0.02174
[  4   4  18  18]-0.02152 [  4   2  16   7] 0.01886 [  2   4   7  16] 0.01886
-----------------------------------------------------------------------------
   Norm of T2AB vector (     1534 symmetry allowed elements):  0.1936126964.
-----------------------------------------------------------------------------
------------------------------------------------------------------------
          Core memory requirement for full matrix algorithms

    Contraction or quantity             Memory needed (words)
                                      C1                     C2v
------------------------------------------------------------------------
  Particle-particle ladder (AB)      141873                   14125
  Hole-hole ladder (AB)               11808                    1392
  Fourth-order singles (AB)               0                       0
  Rings (AB)                          17328                    1875
  T2 vector (AB)                       5776                    1534
  T2 vector (AA)                       1026                     261
------------------------------------------------------------------------
------------------------------------------------------------------------
     Floating point operations required for full  matrix algorithms

  Term            spins   method                    FLOP
                                           C1                 C2v
------------------------------------------------------------------------
 a) contributions to the intermediates :
 
 T2 --> W(MNIJ)  (ABAB)   2 - 7            92416              7220
 
 T1 --> W(MNIJ)  (ABAB)     7               4864               464
 
 T2 --> W(MBEJ)  (AAAA)   3 - 7           877952             65132
 T2 --> W(MBEJ)  (ABAB)   3 - 7           877952             65132
 T2 --> W(MBEJ)  (BAAB)   3 - 7           438976             32566
 
 T1 --> W(MBEJ)  (AAAA)     7             132848             11963
 T1 --> W(MBEJ)  (ABAB)     7             132848             11963
 T1 --> W(MBEJ)  (BAAB)     7             132848             11963
 
 T1 --> W(ABEF)  (ABAB)     7             462080             34940
 
 T2 --> F(MI)    (AA)     3 - 7            23104              2346
 
 T2 --> F(AE)    (AA)     3 - 7           109744              9470
 
b) contractions
------------------------------------------------------------------------
 
 W(ABEF) --> T2 (ABAB)    1 - 7          2085136            153254
 
 W(MNIJ) --> T2 (ABAB)    1 - 7            92416              7220
 
 W(MBEJ) --> T2 (ABAB)    1 - 7           877952             65132
 W(MBEJ) --> T2 (BAAB)    1 - 7           438976             32566
 
 F(MI) --> T2   (ABAB)    2 - 7            23104              2346
 
 F(AE) --> T2   (ABAB)    2 - 7           109744              9470
 
c) direct contributions
------------------------------------------------------------------------
 
 T2 --> T1       (AA)     3,4,6,7         193496             17209
 
 T1 --> T2      (ABAB)     6,7            132848             11963
 
 T1**2 --> T2   (ABAB)      7              46208              4220
 T1**2 --> T2   (BAAB)      7              46208              4220
 
d) total number of operations for various methods
------------------------------------------------------------------------
 
 MBPT(3)                        (1)      3494480            258172
 DQ-MBPT(4)                     (2)      7456816            556772
 SDQ-MBPT(4)                    (3)      7650312            573981
 CCD          per iteration     (5)      6047472            451854
 QCISD        per iteration     (6)      6373816            481026
 CCSD         per iteration     (7)      7198872            548796
 
[...]
   -0.018754  1a 4b -> 5a 10b                                           
    0.012644  1a 4b -> 8a 10b                                           
   -0.013143  3a 4b -> 8a 10b                                           
    0.029046  3a 4b -> 9a 10b                                           
   -0.018754  4a 1b -> 10a 5b                                           
    0.012644  4a 1b -> 10a 8b                                           
   -0.013143  4a 3b -> 10a 8b                                           
    0.029046  4a 3b -> 10a 9b                                           
    0.011592  3a 4b -> 7a 13b                                           
    0.011592  4a 3b -> 13a 7b                                           
   -0.014900  1a 2b -> 5a 6b                                            
    0.010584  1a 2b -> 8a 7b                                            
   -0.014797  1a 2b -> 5a 11b                                           
    0.010640  1a 2b -> 8a 11b                                           
    0.015173  3a 2b -> 5a 6b                                            
   -0.013734  3a 2b -> 8a 6b                                            
    0.018615  3a 2b -> 9a 6b                                            
    0.011578  3a 2b -> 5a 7b                                            
   -0.016620  3a 2b -> 8a 7b                                            
    0.013018  3a 2b -> 9a 7b                                            
   -0.010424  3a 2b -> 12a 7b                                           
   -0.010381  3a 2b -> 8a 11b                                           
    0.016522  3a 2b -> 9a 11b                                           
    0.011360  2a 1b -> 8a 7b                                            
   -0.011197  2a 3b -> 8a 6b                                            
   -0.022550  2a 3b -> 8a 7b                                            
    0.011360  1a 2b -> 7a 8b                                            
   -0.011197  3a 2b -> 6a 8b                                            
   -0.022550  3a 2b -> 7a 8b                                            
   -0.014900  2a 1b -> 6a 5b                                            
   -0.014797  2a 1b -> 11a 5b                                           
    0.010584  2a 1b -> 7a 8b                                            
    0.010640  2a 1b -> 11a 8b                                           
    0.015173  2a 3b -> 6a 5b                                            
    0.011578  2a 3b -> 7a 5b                                            
   -0.013734  2a 3b -> 6a 8b                                            
   -0.016620  2a 3b -> 7a 8b                                            
   -0.010381  2a 3b -> 11a 8b                                           
    0.018615  2a 3b -> 6a 9b                                            
    0.013018  2a 3b -> 7a 9b                                            
    0.016522  2a 3b -> 11a 9b                                           
   -0.010424  2a 3b -> 7a 12b                                           
   -0.022435  4a 2b -> 10a 6b                                           
   -0.013140  4a 2b -> 10a 7b                                           
   -0.010388  4a 2b -> 14a 7b                                           
   -0.023152  4a 2b -> 10a 11b                                          
   -0.022435  2a 4b -> 6a 10b                                           
   -0.013140  2a 4b -> 7a 10b                                           
   -0.023152  2a 4b -> 11a 10b                                          
   -0.010388  2a 4b -> 7a 14b                                           
   -0.011586  3a 4a -> 8a 10a                                           
    0.020358  3a 4a -> 9a 10a                                           
    0.016198  2a 3a -> 6a 9a                                            
    0.014687  2a 3a -> 7a 9a                                            
   -0.011575  2a 3a -> 9a 11a                                           
   -0.012802  2a 3a -> 7a 12a                                           
   -0.017125  2a 4a -> 6a 10a                                           
    0.016964  2a 4a -> 10a 11a                                          
    0.013076  2a 4a -> 8a 13a                                           

 ************************ 2019-01-08 05:27:38 *************************
 Executing goldstone...

 Generation of MRCC equations in terms of H and T...
 Generation of antisymmetrized Goldstone diagrams...
 Number of diagrams in T^1 equations:    15
 Number of diagrams in T^2 equations:    38
 Number of diagrams in T^3 equations:    54
 Number of diagrams in T^4 equations:    81
 Number of diagrams in T^5 equations:   106
 Number of diagrams in T^6 equations:   142
 Number of diagrams in T^7 equations:   175
 Number of diagrams in T^8 equations:   215
 Translation of diagrams to factorized equations...
 Number of restricted diagrams in T^1 equations:     30
 Number of restricted diagrams in T^2 equations:    129
 Number of restricted diagrams in T^3 equations:    306
 Number of restricted diagrams in T^4 equations:    674
 Number of restricted diagrams in T^5 equations:   1288
 Number of restricted diagrams in T^6 equations:   2347
 Number of restricted diagrams in T^7 equations:   3972
 Number of restricted diagrams in T^8 equations:   6459
 Optimizing intermediate calculation...
 Number of floating-point operations per iteration step:   1.2790E+13
 Probable CPU time per iteration step (hours):    127.90
 Required memory (Mbytes):     394.5
 Number of intermediates:                                2899
 Number of intermediates to be stored:                    803
 Length of intermediate file (Mbytes):   10085.6

 ************************ 2019-01-08 05:27:46 *************************
 Executing xmrcc...

 **********************************************************************
 MRCC(                     8 ) calculation 
 
 
 Allocation of 394.5 Mbytes of memory...
 Number of spinorbitals:                    46
 Number of alpha electrons:                        4
 Number of beta electrons:                         4
 Number of active particles:                    20
 Number of active holes:                         0
 Spin multiplicity:                     1
 z-component of spin:  0.0
 Spatial symmetry:                      1
 Convergence criterion:  1.0E-05
 Construction of occupation graphs...
 Number of                     0 -fold excitations:                      1
 Number of                     1 -fold excitations:                     50
 Number of                     2 -fold excitations:                   2056
 Number of                     3 -fold excitations:                  40910
 Number of                     4 -fold excitations:                 411950
 Number of                     5 -fold excitations:                2136060
 Number of                     6 -fold excitations:                5746606
 Number of                     7 -fold excitations:                7509880
 Number of                     8 -fold excitations:                3756656
 Total number of configurations:               19604169
 Calculation of coupling coefficients...
 Length of intermediate file (Mbytes):    9426.9
 
 ======================================================================
 
 Memory requirements /Mbyte/: 
               Minimal        Optimal
 Real*8:        402.1297       402.1297
 Integer:        92.0018
 Total:         494.1315       494.1315
 

 ************************ 2019-01-08 05:28:26 *************************
 Executing mrcc...

 **********************************************************************
 CC(8) calculation                                                      
 
 
 OpenMP parallel version is running.
 Number of CPUs:  16
 Allocation of  402.1 Mbytes of memory...
 Number of spinorbitals:  46
 Number of alpha electrons:  4
 Number of beta  electrons:  4
 Number of active particles:                    20
 Number of active holes:                         0
 Spin multiplicity: 1
 z-component of spin:  0.0
 Spatial symmetry: 1
 Convergence criterion:  1.0E-05
 Construction of occupation graphs...
 Number of 0-fold excitations: 1
 Number of 1-fold excitations: 50
 Number of 2-fold excitations: 2056
 Number of 3-fold excitations: 40910
 Number of 4-fold excitations: 411950
 Number of 5-fold excitations: 2136060
 Number of 6-fold excitations: 5746606
 Number of 7-fold excitations: 7509880
 Number of 8-fold excitations: 3756656
 Total number of determinants: 19604169
 Calculation of coupling coefficients...
 Initial cluster amplitudes are read from unit 16.
 Length of intermediate file (Mbytes):    9426.9
 Reading integral list from unit 55...
 Sorting integrals...
 Energy of reference determinant [au]:     -76.026778796184
 Calculation of MP denominators...
 
 Starting CC iteration...
 ======================================================================
 Norm of residual vector:     0.00004756
 CPU time [min]:  1300.744                   Wall time [min]:    89.504
 
 Iteration  1  CC energy:   -76.24166844  Energy decrease:   0.00000001
 ======================================================================
 Norm of residual vector:     0.00001198
 CPU time [min]:  2609.021                   Wall time [min]:   176.880
 
 Iteration  2  CC energy:   -76.24166845  Energy decrease:   0.00000001
 ======================================================================
 Norm of residual vector:     0.00000176
 CPU time [min]:  3925.969                   Wall time [min]:   265.561
 
 Iteration  3  CC energy:   -76.24166845  Energy decrease:   7.8980E-10
 ======================================================================
 
 Iteration has converged in  3 steps.
 
 Final results:
 Total CC(8) energy [au]:            -76.241668450338
 
 Dominant cluster amplitudes
 Printing threshold:  1.00E-02
 
    1.000000  Reference determinant                                     
   -0.011853  3a 3b -> 21a 21b                                          
   -0.013813  4a 4b -> 15a 15b                                          
   -0.010850  3a 3b -> 19a 19b                                          
   -0.013073  4a 4b -> 19a 19b                                          
   -0.010754  2a 2b -> 17a 17b                                          
   -0.012745  4a 4b -> 20a 20b                                          
   -0.013019  1a 3b -> 15a 9b                                           
   -0.012278  3a 3b -> 15a 9b                                           
   -0.010981  2a 2b -> 17a 7b                                           
    0.015760  1a 4b -> 15a 10b                                          
    0.010123  1a 4b -> 18a 10b                                          
    0.011667  1a 2b -> 15a 11b                                          
   -0.013019  3a 1b -> 9a 15b                                           
   -0.012278  3a 3b -> 9a 15b                                           
   -0.010981  2a 2b -> 7a 17b                                           
    0.015760  4a 1b -> 10a 15b                                          
    0.010123  4a 1b -> 10a 18b                                          
    0.011667  2a 1b -> 11a 15b                                          
   -0.011586  3b 4b -> 8b 10b                                           
    0.020358  3b 4b -> 9b 10b                                           
    0.016198  2b 3b -> 6b 9b                                            
    0.014687  2b 3b -> 7b 9b                                            
   -0.011575  2b 3b -> 9b 11b                                           
   -0.012802  2b 3b -> 7b 12b                                           
   -0.017125  2b 4b -> 6b 10b                                           
    0.016964  2b 4b -> 10b 11b                                          
    0.013076  2b 4b -> 8b 13b                                           
   -0.012908  1a 1b -> 5a 5b                                            
    0.010947  1a 1b -> 8a 5b                                            
    0.010947  1a 1b -> 5a 8b                                            
   -0.014115  1a 1b -> 8a 8b                                            
    0.012441  3a 1b -> 5a 5b                                            
   -0.012257  3a 1b -> 8a 5b                                            
    0.012024  3a 1b -> 9a 5b                                            
   -0.010743  3a 1b -> 5a 8b                                            
    0.014205  3a 1b -> 8a 8b                                            
    0.012441  1a 3b -> 5a 5b                                            
   -0.010743  1a 3b -> 8a 5b                                            
   -0.012257  1a 3b -> 5a 8b                                            
    0.014205  1a 3b -> 8a 8b                                            
    0.012024  1a 3b -> 5a 9b                                            
   -0.017635  3a 3b -> 5a 5b                                            
    0.012469  3a 3b -> 8a 5b                                            
    0.012469  3a 3b -> 5a 8b                                            
   -0.015988  3a 3b -> 8a 8b                                            
    0.013332  3a 3b -> 9a 8b                                            
    0.013332  3a 3b -> 8a 9b                                            
   -0.035917  3a 3b -> 9a 9b                                            
   -0.015739  3a 3b -> 12a 12b                                          
   -0.013488  4a 4b -> 5a 5b                                            
   -0.015146  2a 2b -> 5a 5b                                            
    0.014517  2a 2b -> 8a 5b                                            
    0.014517  2a 2b -> 5a 8b                                            
   -0.029287  2a 2b -> 8a 8b                                            
   -0.051866  4a 4b -> 10a 10b                                          
   -0.010147  3a 3b -> 6a 6b                                            
   -0.013897  3a 3b -> 7a 6b                                            
   -0.013897  3a 3b -> 6a 7b                                            
   -0.026686  3a 3b -> 7a 7b                                            
   -0.030921  2a 2b -> 6a 6b                                            
   -0.021653  2a 2b -> 7a 6b                                            
   -0.019590  2a 2b -> 11a 6b                                           
   -0.021653  2a 2b -> 6a 7b                                            
   -0.037163  2a 2b -> 7a 7b                                            
   -0.019590  2a 2b -> 6a 11b                                           
   -0.022561  2a 2b -> 11a 11b                                          
   -0.015393  2a 2b -> 13a 13b                                          
   -0.018754  1a 4b -> 5a 10b                                           
    0.012644  1a 4b -> 8a 10b                                           
   -0.013143  3a 4b -> 8a 10b                                           
    0.029046  3a 4b -> 9a 10b                                           
   -0.018754  4a 1b -> 10a 5b                                           
    0.012644  4a 1b -> 10a 8b                                           
   -0.013143  4a 3b -> 10a 8b                                           
    0.029046  4a 3b -> 10a 9b                                           
    0.011592  3a 4b -> 7a 13b                                           
    0.011592  4a 3b -> 13a 7b                                           
   -0.014900  1a 2b -> 5a 6b                                            
    0.010584  1a 2b -> 8a 7b                                            
   -0.014797  1a 2b -> 5a 11b                                           
    0.010640  1a 2b -> 8a 11b                                           
    0.015173  3a 2b -> 5a 6b                                            
   -0.013734  3a 2b -> 8a 6b                                            
    0.018615  3a 2b -> 9a 6b                                            
    0.011578  3a 2b -> 5a 7b                                            
   -0.016620  3a 2b -> 8a 7b                                            
    0.013018  3a 2b -> 9a 7b                                            
   -0.010424  3a 2b -> 12a 7b                                           
   -0.010381  3a 2b -> 8a 11b                                           
    0.016522  3a 2b -> 9a 11b                                           
    0.011360  2a 1b -> 8a 7b                                            
   -0.011197  2a 3b -> 8a 6b                                            
   -0.022550  2a 3b -> 8a 7b                                            
    0.011360  1a 2b -> 7a 8b                                            
   -0.011197  3a 2b -> 6a 8b                                            
   -0.022550  3a 2b -> 7a 8b                                            
   -0.014900  2a 1b -> 6a 5b                                            
   -0.014797  2a 1b -> 11a 5b                                           
    0.010584  2a 1b -> 7a 8b                                            
    0.010640  2a 1b -> 11a 8b                                           
    0.015173  2a 3b -> 6a 5b                                            
    0.011578  2a 3b -> 7a 5b                                            
   -0.013734  2a 3b -> 6a 8b                                            
   -0.016620  2a 3b -> 7a 8b                                            
   -0.010381  2a 3b -> 11a 8b                                           
    0.018615  2a 3b -> 6a 9b                                            
    0.013018  2a 3b -> 7a 9b                                            
    0.016522  2a 3b -> 11a 9b                                           
   -0.010424  2a 3b -> 7a 12b                                           
   -0.022435  4a 2b -> 10a 6b                                           
   -0.013140  4a 2b -> 10a 7b                                           
   -0.010388  4a 2b -> 14a 7b                                           
   -0.023152  4a 2b -> 10a 11b                                          
   -0.022435  2a 4b -> 6a 10b                                           
   -0.013140  2a 4b -> 7a 10b                                           
   -0.023152  2a 4b -> 11a 10b                                          
   -0.010388  2a 4b -> 7a 14b                                           
   -0.011586  3a 4a -> 8a 10a                                           
    0.020358  3a 4a -> 9a 10a                                           
    0.016198  2a 3a -> 6a 9a                                            
    0.014687  2a 3a -> 7a 9a                                            
   -0.011575  2a 3a -> 9a 11a                                           
   -0.012802  2a 3a -> 7a 12a                                           
   -0.017125  2a 4a -> 6a 10a                                           
    0.016964  2a 4a -> 10a 11a                                          
    0.013076  2a 4a -> 8a 13a                                           
 
 ************************ 2019-01-08 09:54:14 *************************
                      Normal termination of mrcc.
 **********************************************************************
--executable dmrcc finished with status     0 in    42597.69 seconds (walltime).
  The final electronic energy is       -76.241668450337571 a.u. 
  This computation required                        42608.23 seconds (walltime).
--- SharcNET Job Epilogue ---
Job completed successfully.
               jobid: 1659227
               resid: 3134031
         exit status: 0
      allocated time: 42609.6
           user time: 592464
         system time: 12784.1
peak rss=13211447296; peak vsz=13211447296 (bytes)
atime=42609.6; utime=592464; stime=12784.1; exit=0
