 --invoking executable--
/home/nike/cfour_v2.00beta/cfour_v2.00beta/bin/xjoda


   *************************************************************************
         <<<     CCCCCC     CCCCCC   |||     CCCCCC     CCCCCC   >>>
       <<<      CCC        CCC       |||    CCC        CCC         >>>
      <<<      CCC        CCC        |||   CCC        CCC            >>>
    <<<        CCC        CCC        |||   CCC        CCC              >>>
      <<<      CCC        CCC        |||   CCC        CCC            >>>
       <<<      CCC        CCC       |||    CCC        CCC         >>>
         <<<     CCCCCC     CCCCCC   |||     CCCCCC     CCCCCC   >>>
   *************************************************************************

     ****************************************************************
     * CFOUR Coupled-Cluster techniques for Computational Chemistry *
     ****************************************************************
 

   Department of Chemistry                Institut fuer Physikalische Chemie
   University of Texas at Austin          Universitaet Mainz
   Austin, TX  78712, USA                 D-55099 Mainz, Germany
 
                       Version 2.00beta
 
                     blg8442.int.ets1.calculquebec.ca                  
                     Di 25. Feb 01:20:25 EST 2020                      
                     integer*8 version is running
 
********************************************************************************
*                          Input from ZMAT file                                *
********************************************************************************
TITLE                                                                           
As                                                                              
As 1 R                                                                          
                                                                                
R=3.97333814964                                                                 
                                                                                
*ACES2(CALC=CCSD(T)                                                             
UNITS=BOHR                                                                      
#GEOM=2.1026*10/5.29177210903_from9-20ofCRC2016                                 
#COORD=CARTESIAN                                                                
COORD=INTERNAL                                                                  
PRINT=4                                                                         
JODA_PRINT=4                                                                    
INPUT_MRCC=OFF                                                                  
#CC_PROG=MRCC                                                                   
#FROZEN_CORE=ON                                                                 
DROPMO=1>18                                                                     
CONTRACTION=GENERAL                                                             
#CONTRACTION=SEGMENTED                                                          
RELATIVISTIC=OFF                                                                
#EXCITE=EOMEE                                                                   
#ESTATE_CONV=5                                                                  
#ESTATE_SYM=2/2/2/2/2/2/2/2                                                     
XFORM_TOL=18                                                                    
SAVE_INTS=ON                                                                    
SCF_EXPORDER=6                                                                  
SCF_EXPSTART=5                                                                  
#SCF_DAMPING=1000                                                               
SCF_EXTRAPOLATION=ON                                                            
SCF_CONV=13                                                                     
SCF_MAXCYC=99999                                                                
CC_CONV=9                                                                       
CC_MAXCYC=999                                                                   
T3_EXTRAPOL=ON                                                                  
REFERENCE=RHF                                                                   
CHARGE=+0                                                                       
MULT=1                                                                          
ABCDTYPE=STANDARD                                                               
#OCCUPATION=3-2-2-0-1-0-0-0/3-1-1-0-1-0-0-0                                     
MEM=12                                                                          
MEM_UNIT=GB                                                                     
BASIS=SPECIAL)                                                                  
                                                                                
AS:def2-TZVPP                                                                   
AS:def2-TZVPP                                                                   
                                                                                
********************************************************************************
  @GTFLGS-W, Keyword #GEOM not known and is ignored.
  @GTFLGS-W, Keyword #COORD not known and is ignored.
  @GTFLGS-W, Keyword #CC_PROG not known and is ignored.
  @GTFLGS-W, Keyword #FROZEN_CORE not known and is ignored.
  @GTFLGS-W, Keyword #CONTRACTION not known and is ignored.
  @GTFLGS-W, Keyword #EXCITE not known and is ignored.
  @GTFLGS-W, Keyword #ESTATE_CONV not known and is ignored.
  @GTFLGS-W, Keyword #ESTATE_SYM not known and is ignored.
  @GTFLGS-W, Keyword #SCF_DAMPING not known and is ignored.
  @GTFLGS-W, Keyword #OCCUPATION not known and is ignored.
    -------------------------------------------------------------------
                    CFOUR Control Parameters 
    -------------------------------------------------------------------
        External           Internal           Value            Units
          Name               Name
    -------------------------------------------------------------------
       ABCDTYPE             IABCDT         STANDARD     [  0]   ***   
       ANHARMONIC           IANHAR         OFF          [  0]   ***   
       ANH_ALGORIT          IANALG         STANDARD     [  0]   ***   
       ANH_DERIVAT          IANDER         SECOND       [  1]   ***   
       ANH_STEPSIZ          ICUBST             50000          x 10-6  
       ANH_SYMMETR          IANHSM         ABELIAN      [  0]   ***   
       AO_LADDERS           IAOLAD         SINGLEPASS   [  1]   ***   
       BASIS                IBASIS         SPECIAL      [  0]   ***   
       BREIT                IBREIT         OFF          [  0]   ***   
       BRUCK_CONV           IBRTOL          10D-  4             ***   
       BRUECKNER            IBRKNR             OFF      [  0]   ***   
       BUFFERSIZE           IBUFFS            600               ***   
       CACHE_RECS           ICHREC             10               ***   
       CALCLEVEL            ICLLVL           CCSD(T)    [ 22]   ***   
       CCORBOPT             ICCORB             OFF      [  0] x 0.01  
       CC_CONV              ICCCNV          10D-  9             ***   
       CC_EXPORDER          ICCEOR              5               ***   
       CC_EXTRAPOL          ICCEXT             DIIS     [  1]   ***   
       CC_MAXCYC            ICCCYC            999              cycles 
       CC_PROGRAM           ICCPRO         VCC          [  0]   ***   
       CHARGE               ICHRGE              0               ***   
       CHOLESKY             ICHOLE         OFF          [  0]   ***   
       CIS_CONV             ICISTL              5               ***   
       COMM_SIZE            IPSIZE            ***               ***   
       CONSTANT             ICONST         OLD          [  1]   ***   
       CONTINUUM            ICONTU         NONE         [  0]   ***   
       CONTRACTION          ICNTYP          GENERAL     [  1]   ***   
       COORDINATES          ICOORD         INTERNAL     [  0]   ***   
       CPHF_CONVER          ICPHFT          10D- 16             ***   
       CPHF_MAXCYC          ICPHFC             64              cycles 
       CUBIC                ICUBIC         OFF          [  0]   ***   
       CURVILINEAR          ICURVY            OFF       [  0]   ***   
       DBOC                 IDBOC          OFF          [  0]   ***   
       DCT                  IDCT           OFF          [  0]   ***   
       DERIV_LEV            IDRLVL            ZERO      [  0]   ***   
       DIAG_MRCC            IEOMST          10D-  0             ***   
       DIFF_TYPE            IDIFTY         RELAXED      [  0]   ***   
       DIRECT               IDIRCT         OFF          [  0]   ***   
       DROPMO               IDRPMO   1,  2,  3,  4,  5,  6,  7,  8,
                                     9, 10, 11, 12, 13, 14, 15, 16,
                                    17, 18,
       ECP                  IECP           OFF          [  0]   ***   
       EIGENVECTOR          IVEC                1               ***   
       EL_ANHARM            IELANH         OFF          [  0]   ***   
       EOMFOLLOW            IEOMSR         ENERGY       [  0]   ***   
       EOM_MRCC             IMRCCE         NEW          [  1]   ***   
       EOM_NONIT            EOMNON         OFF          [  0]   ***   
       EOM_NSING            IEOMSI          10D-  0             ***   
       EOM_NSTATES          IMRCCD         DAVIDSON     [  0]   ***   
       EOM_NTRIP            IEOMTR          10D-  0             ***   
       EOM_ORDER            IEXORD         ENERGY       [  0]   ***   
       ESTATE_CONV          IEXTOL          10D-  5             ***   
       ESTATE_DIAG          IEXDIG         ITERATIVE    [  0]   ***   
       ESTATE_LOCK          IESLOC         ON           [  1]   ***   
       ESTATE_MAXC          IEXMXC             20               ***   
       ESTATE_PROP          IEXPRP         OFF          [  0]   ***   
       EVAL_HESS            IRECAL              0            # of cyc.
       EXCITATION           IEXCIT              0               ***   
       EXCITE               IEXCIT         NONE         [  0]   ***   
       FCGRADNEW            IFCGNW         OFF          [  0]   ***   
       FC_FIELD             IFINFC              0             x 10-6  
       FD_CALTYPE           IFDCAL         GRADONLY     [  0]   ***   
       FD_PROJECT           IFDPRJ         OFF          [  1]   ***   
       FD_STEPSIZE          IDISFD              0            10-4 bohr
       FD_USEGROUP          IFDGRP         FULL         [  0]   ***   
       FILE_RECSIZ          IFLREC              4096           words  
       FINITE_PERT          IFIPER              0             x 10-6  
       FIXGEOM              IFIXGM         OFF          [  0]   ***   
       FOCK                 IFOCK          AO           [  1]   ***   
       FREQ_ALGORI          IVIALG         STANDARD     [  0]   ***   
       FROZEN_CORE          IFROCO         OFF          [  0]   ***   
       FROZEN_VIRT          IFROVI         OFF          [  0]   ***   
       GAMMA_ABCD           IGABCD         STORE        [  0]   ***   
       GAMMA_ABCI           IGABCI         STORE        [  0]   ***   
       GENBAS_1             IGNBS1              0               ***   
       GENBAS_2             IGNBS2              0               ***   
       GENBAS_3             IGNBS3              0               ***   
       GENBAS_4             IGNBS4              0               ***   
       GEO_CONV             ICONTL              5              H/bohr 
       GEO_MAXCYC           IOPTCY             50               ***   
       GEO_MAXSTEP          IMXSTP            300            millibohr
       GEO_METHOD           INR            SINGLE_POINT [  5]   ***   
       GIAO                 IGIAO          OFF          [  1]   ***   
       GIMIC                IGIMIC         OFF          [  0]   ***   
       GRID                 IGRID          OFF          [  0]   ***   
       GRID_ALGO            IGALGO         SERIAL       [  0]   ***   
       GUESS                IGUESS            MOREAD    [  0]   ***   
       HBAR                 IHBAR              OFF      [  0]   ***   
       HESS_TYPE            IHESTP         SCF          [  0]   ***   
       HF2_FILE             IHF2Fl         USE          [  1]   ***   
       HFSTABILITY          ISTABL         OFF          [  0]   ***   
       INCORE               INCORE             OFF      [  0]   ***   
       INPUT_MRCC           IMRCC          OFF          [  0]   ***   
       INTEGRALS            INTTYP             VMOL     [  1]   ***   
       JODA_PRINT           IJPRNT              4               ***   
       LINDEP_TOL           ILINDP              8               ***   
       LINEQ_CONV           IZTACN          10D-  7           cycles  
       LINEQ_EXPOR          ILMAXD              5               ***   
       LINEQ_MAXCY          ILMAXC             50               ***   
       LINEQ_TYPE           ILTYPE         DIIS         [  1]   ***   
       LOCK_ORBOCC          ILOCOC             OFF      [  0]   ***   
       MEMORY_SIZE          IMEMSZ         *********           words  
       MEM_UNIT             IMEMU          GB           [  3]   ***   
       MRCC                 IMRCCC         OFF          [  0]   ***   
       MULTIPLICTY          IMULTP              1               ***   
       NEGEVAL              IDIE             ABORT      [  0]   ***   
       NEWNORM              INEWNO         OFF          [  0]   ***   
       NON-HF               INONHF             OFF      [  0]   ***   
       NTOP_TAMP            ITOPT2             15               ***   
       NUC_MODEL            INUCMO         POINT        [  0]   ***   
       OCCUPATION           IOCCU   ESTIMATED BY SCF 
       OPEN-SHELL           IOPEN          SPIN-ORBITAL [  0]   ***   
       ORBITALS             IORBTP           STANDARD   [  0]   ***   
       PARALLEL             IPARAL         ON           [  1]   ***   
       PARA_INT             IPINTS         ON           [  1]   ***   
       PARA_PRINT           IPPRIN              0               ***   
       PERT_ORB             IPTORB         STANDARD     [  0]   ***   
       POINTS               IGRDFD              0               ***   
       PRINT                IPRNT               4               ***   
       PROPS                IPROPS             OFF      [  0]   ***   
       PROP_INTEGR          IINTYP         INTERNAL     [  0]   ***   
       PSI                  IPSI           OFF          [  0]   ***   
       QUARTIC              IQUART         OFF          [  0]   ***   
       RAMAN_INT            IRAMIN         OFF          [  0]   ***   
       RAMAN_ORB            IRAMRE         UNRELAXED    [  0]   ***   
       RDO                  IRDOFM             OFF      [  0]   ***   
       REFERENCE            IREFNC             RHF      [  0]   ***   
       RELATIVIST           IRELAT         OFF          [  0]   ***   
       RELAX_DENS           IRDENS             OFF      [  0]   ***   
       RESET_FLAGS          IRESET             OFF      [  0]   ***   
       RESTART_CC           ICCRES         OFF          [  0]   ***   
       ROT_EVEC             ROTVEC              0               ***   
       SAVE_INTS            ISVINT              ON      [  1]   ***   
       SCALE_ON             ISTCRT              0               ***   
       SCF_CONV             ISCFCV          10D- 13             ***   
       SCF_DAMPING          IDAMP               0             x 10-3  
       SCF_EXPORDE          IRPPOR              6               ***   
       SCF_EXPSTAR          IRPPLS              5               ***   
       SCF_EXTRAPO          IRPP                ON      [  1]   ***   
       SCF_MAXCYC           ISCFCY            ***              cycles 
       SCF_NOSTOP           ISCFST         OFF          [  0]   ***   
       SCF_PRINT            ISCFPR              0               ***   
       SD_FIELD             IFINSD              0             x 10-6  
       SEQUENCE             ISEQUE         OFF          [  0]   ***   
       SOPERT               IPERSO         OFF          [  0]   ***   
       SPHERICAL            IDFGHI             ON       [  1]   ***   
       SPINORBIT            ISOCAL         OFF          [  0]   ***   
       SPINROTATIO          ISRCON         OFF          [  0]   ***   
       SPIN_FLIP            ISPFLP         OFF          [  0]   ***   
       SPIN_ORBIT           ISPORB         OFF          [  0]   ***   
       SPIN_SCAL            ISCSMP         OFF          [  0]   ***   
       SUBGROUP             ISUBGP         DEFAULT      [  0]   ***   
       SUBGRPAXIS           ISBXYZ         X            [  0]   ***   
       SYMMETRY             ISYM             ON         [  0]   ***   
       SYM_CHECK            ISYMCK         OVERRIDE     [  1]   ***   
       T3_EXTRAPOL          IT3EXT         ON           [  1]   ***   
       TAMP_SUM             IEVERY              5               ***   
       TESTSUITE            ITESTS         OFF          [  0]   ***   
       THERMOCH             ITHERM         OFF          [  0]   ***   
       TOL_CHOLESK          ITOLCH          10D-  4             ***   
       TRANGRAD             IRESRM         OFF          [  0]   ***   
       TRANS_INV            ITRAIN         USE          [  0]   ***   
       TREAT_PERT           ITREAT         SIMULTANEOUS [  0]   ***   
       UIJ_THRESHO          IUIJTH              1               ***   
       UNITS                IUNITS         BOHR         [  1]   ***   
       UNOS                 IUNOS          OFF          [  0]   ***   
       UPDATE_HESS          IHUPDT         ON           [  1]   ***   
       VIBPHASE             ISETPH         STANDARD     [  0]   ***   
       VIBRATION            IVIB              NO        [  0]   ***   
       VIB_ALGORIT          IGEALG         STANDARD     [  0]   ***   
       VNATORB              IVNORB         OFF          [  0]   ***   
       VTRAN                IVTRAN         FULL/PARTIAL [  0]   ***   
       XFIELD               IXEFLD              0             x 10-6  
       XFORM_TOL            IXFTOL          10D- 18             ***   
       YFIELD               IYEFLD              0             x 10-6  
       ZFIELD               IZEFLD              0             x 10-6  
    -------------------------------------------------------------------
   2 entries found in Z-matrix 
   Job Title : TITLE                                                                           
 Variable names read by FETCHZ
  1           
  2           
  3           
  4 R         
  5           
  6           
 Atomic symbols read by FETCHZ
  1 As   
  2 As   
 Connectivity matrix read by FETCHZ
  1   0
  2   0
  3   0
  4   1
  5   0
  6   0
   There are  1 unique internal coordinates.
   Of these,  0 will be optimized.
   User supplied Z-matrix: 
--------------------------------------------------------------------------------
       SYMBOL    BOND      LENGTH    ANGLE     ANGLE     DIHED     ANGLE
                  TO      (ANGST)    WRT      (DEG)      WRT      (DEG)
--------------------------------------------------------------------------------
        As   
        As         1         R    
                  *Initial values for internal coordinates* 
                      Name             Value
                        R               3.9733381496
--------------------------------------------------------------------------------
  1  AS        33    74.92159
  2  AS        33    74.92159
   74.9215942000
   74.9215942000
 After translation to center of mass coordinates 
        0.000000000000    0.000000000000   -1.986669074820
        0.000000000000    0.000000000000    1.986669074820
  Inertia tensor (amu*bohr**2)
  591.40919    0.00000    0.00000
    0.00000  591.40919    0.00000
    0.00000    0.00000    0.00000
    Inertia tensor:
      591.409189434202    0.000000000000    0.000000000000
        0.000000000000  591.409189434202    0.000000000000
        0.000000000000    0.000000000000    0.000000000000
    Principal axis orientation for molecular system: 
       -0.000000000000    0.000000000000    1.986669074820
        0.000000000000    0.000000000000   -1.986669074820
    Diagonalized inertia tensor:
      591.409189434202    0.000000000000    0.000000000000
        0.000000000000  591.409189434202    0.000000000000
        0.000000000000    0.000000000000    0.000000000000
    Eigenvectors of inertia tensor: 
        1.000000000000    0.000000000000    0.000000000000
        0.000000000000    1.000000000000    0.000000000000
        0.000000000000    0.000000000000   -1.000000000000
 factor:   60.1997200000000     
   Rotational constants (in cm-1): 
          0.1017903020             0.1017903020
   Rotational constants (in MHz): 
       3051.5969113307          3051.5969113307
  @SYMMETRY-I, Handedness of inertial frame:-1.00000
  @SYMMETRY-I, Sense of inertial frame y-axis will be changed.
  @SYMMETRY-I, The symmetry group is 2-fold degenerate.
  @SYMMETRY-I, The molecule belongs to a point group with doubly degenerate representations.
  @SYMMETRY-I, The molecule is linear.
   Principal axis orientation for molecule:
       -0.000000000000    0.000000000000    1.986669074820
        0.000000000000    0.000000000000   -1.986669074820
   Reflection in plane  3 is a valid symmetry operation.
   Rotation about  3 is a valid symmetry operation 
   Reflection in plane  2 is a valid symmetry operation.
   Rotation about  2 is a valid symmetry operation 
   Reflection in plane  1 is a valid symmetry operation.
   Rotation about  1 is a valid symmetry operation 
   The molecule possesses an inversion center. 
  Symmetry bits:    7   7   1
********************************************************************************
   The full molecular point group is DXh .
   The largest Abelian subgroup of the full molecular point group is D2h .
   The computational point group is D2h .
********************************************************************************
--------------------------------------------------------------------------------
   Analysis of internal coordinates specified by Z-matrix 
--------------------------------------------------------------------------------
   *The nuclear repulsion energy is  274.076848983685863 a.u.
   *There is   1 degree of freedom within the tot. symm. molecular subspace.
   *Z-matrix requests optimization of   0 coordinates.
   *The optimization is constrained.
   *The following   1 parameters can have non-zero 
    derivatives within the totally symmetric subspace:
             R    [ 1]
   *The following   0 parameters are to be optimized:

   *The following coordinates must be varied in an  unconstrained optimization.
             R    [ 1]
--------------------------------------------------------------------------------
 ----------------------------------------------------------------
 Z-matrix   Atomic            Coordinates (in bohr)
  Symbol    Number           X              Y              Z
 ----------------------------------------------------------------
     AS       33        -0.00000000     0.00000000     1.98666907
     AS       33         0.00000000     0.00000000    -1.98666907
 ----------------------------------------------------------------
   Interatomic distance matrix (Angstroms) 
 
                 AS            AS   
                [ 1]        [ 2]
  AS   [ 1]     0.00000
  AS   [ 2]     2.10260     0.00000
  Inertia tensor (amu*bohr**2)
  591.40919    0.00000    0.00000
    0.00000  591.40919    0.00000
    0.00000    0.00000    0.00000
   Rotational constants (in cm-1): 
          0.1017903020             0.0000000000
   Rotational constants (in MHz): 
       3051.5969113307             0.0000000000
  @GTFLGS-W, Keyword #GEOM not known and is ignored.
  @GTFLGS-W, Keyword #COORD not known and is ignored.
  @GTFLGS-W, Keyword #CC_PROG not known and is ignored.
  @GTFLGS-W, Keyword #FROZEN_CORE not known and is ignored.
  @GTFLGS-W, Keyword #CONTRACTION not known and is ignored.
  @GTFLGS-W, Keyword #EXCITE not known and is ignored.
  @GTFLGS-W, Keyword #ESTATE_CONV not known and is ignored.
  @GTFLGS-W, Keyword #ESTATE_SYM not known and is ignored.
  @GTFLGS-W, Keyword #SCF_DAMPING not known and is ignored.
  @GTFLGS-W, Keyword #OCCUPATION not known and is ignored.
  There are   96 basis functions.
 @GEOPT-W, Archive file not created for single-point calculation.
  @CHECKOUT-I, Total execution time (CPU/WALL):        0.50/       1.53 seconds.
--executable xjoda finished with status     0 in        2.92 seconds (walltime).
 --invoking executable--
/home/nike/cfour_v2.00beta/cfour_v2.00beta/bin/xvmol
 Serial version of molecule started
********************************************************************************
                    Input from MOL file
********************************************************************************
INTGRL        1    0    1    0    0    0    0    0    0                         
         *** CFOUR Program System (Release V0.1) ***                            
TITLE                                                                           
    1    3 X  Y   Z   0.10E-08              0    0                              
   9999.00      3.00                                                            
         33.00000000    1    4    1    1    1    1                              
AS#1  -0.000000000000000   0.000000000000000   1.986669074820000                
   17    6                                                                      
   498032.421580000       2.274019690000000E-004  0.000000000000000E+000        
  0.000000000000000E+000  0.000000000000000E+000  0.000000000000000E+000        
  0.000000000000000E+000                                                        
   74656.8687430000       1.763281641300000E-003  0.000000000000000E+000        
  0.000000000000000E+000  0.000000000000000E+000  0.000000000000000E+000        
  0.000000000000000E+000                                                        
   16990.9600040000       9.172804038100000E-003  0.000000000000000E+000        
  0.000000000000000E+000  0.000000000000000E+000  0.000000000000000E+000        
  0.000000000000000E+000                                                        
   4809.62003210000       3.733782934400000E-002  0.000000000000000E+000        
  0.000000000000000E+000  0.000000000000000E+000  0.000000000000000E+000        
  0.000000000000000E+000                                                        
   1566.28870550000       0.121995361170000       0.000000000000000E+000        
  0.000000000000000E+000  0.000000000000000E+000  0.000000000000000E+000        
  0.000000000000000E+000                                                        
   563.213604990000       0.291374753240000       0.000000000000000E+000        
  0.000000000000000E+000  0.000000000000000E+000  0.000000000000000E+000        
  0.000000000000000E+000                                                        
   219.111799780000       0.423263514790000       0.000000000000000E+000        
  0.000000000000000E+000  0.000000000000000E+000  0.000000000000000E+000        
  0.000000000000000E+000                                                        
   86.8660610300000       0.229214642780000       0.000000000000000E+000        
  0.000000000000000E+000  0.000000000000000E+000  0.000000000000000E+000        
  0.000000000000000E+000                                                        
   538.195124790000       0.000000000000000E+000 -2.525419729700000E-002        
  0.000000000000000E+000  0.000000000000000E+000  0.000000000000000E+000        
  0.000000000000000E+000                                                        
   167.148502240000       0.000000000000000E+000 -0.119154611150000             
  0.000000000000000E+000  0.000000000000000E+000  0.000000000000000E+000        
  0.000000000000000E+000                                                        
   27.6055171590000       0.000000000000000E+000  0.546284959800000             
  0.000000000000000E+000  0.000000000000000E+000  0.000000000000000E+000        
  0.000000000000000E+000                                                        
   11.9478585210000       0.000000000000000E+000  0.530015209760000             
  0.000000000000000E+000  0.000000000000000E+000  0.000000000000000E+000        
  0.000000000000000E+000                                                        
   18.5380231330000       0.000000000000000E+000  0.000000000000000E+000        
 -0.234791881360000       0.000000000000000E+000  0.000000000000000E+000        
  0.000000000000000E+000                                                        
   3.20189857390000       0.000000000000000E+000  0.000000000000000E+000        
  0.691670534280000       0.000000000000000E+000  0.000000000000000E+000        
  0.000000000000000E+000                                                        
   1.43565220770000       0.000000000000000E+000  0.000000000000000E+000        
  0.000000000000000E+000   1.00000000000000       0.000000000000000E+000        
  0.000000000000000E+000                                                        
  0.318378052000000       0.000000000000000E+000  0.000000000000000E+000        
  0.000000000000000E+000  0.000000000000000E+000   1.00000000000000             
  0.000000000000000E+000                                                        
  0.116226321860000       0.000000000000000E+000  0.000000000000000E+000        
  0.000000000000000E+000  0.000000000000000E+000  0.000000000000000E+000        
   1.00000000000000                                                             
   13    5                                                                      
   2678.94215460000       2.331895528700000E-003  0.000000000000000E+000        
  0.000000000000000E+000  0.000000000000000E+000  0.000000000000000E+000        
   634.617658400000       1.904214997700000E-002  0.000000000000000E+000        
  0.000000000000000E+000  0.000000000000000E+000  0.000000000000000E+000        
   203.939676060000       9.022974491300000E-002  0.000000000000000E+000        
  0.000000000000000E+000  0.000000000000000E+000  0.000000000000000E+000        
   76.3238903690000       0.261690376930000       0.000000000000000E+000        
  0.000000000000000E+000  0.000000000000000E+000  0.000000000000000E+000        
   30.6641249430000       0.418571681550000       0.000000000000000E+000        
  0.000000000000000E+000  0.000000000000000E+000  0.000000000000000E+000        
   12.5050567320000       0.234478301900000       0.000000000000000E+000        
  0.000000000000000E+000  0.000000000000000E+000  0.000000000000000E+000        
   49.2562295490000       0.000000000000000E+000 -2.123553987000000E-002        
  0.000000000000000E+000  0.000000000000000E+000  0.000000000000000E+000        
   7.72748914660000       0.000000000000000E+000  0.304702066680000             
  0.000000000000000E+000  0.000000000000000E+000  0.000000000000000E+000        
   3.54104934760000       0.000000000000000E+000  0.528883731070000             
  0.000000000000000E+000  0.000000000000000E+000  0.000000000000000E+000        
   1.69855855010000       0.000000000000000E+000  0.372722509550000             
  0.000000000000000E+000  0.000000000000000E+000  0.000000000000000E+000        
  0.768480710440000       0.000000000000000E+000  0.000000000000000E+000        
   1.00000000000000       0.000000000000000E+000  0.000000000000000E+000        
  0.300508232600000       0.000000000000000E+000  0.000000000000000E+000        
  0.000000000000000E+000   1.00000000000000       0.000000000000000E+000        
  9.819063943700000E-002  0.000000000000000E+000  0.000000000000000E+000        
  0.000000000000000E+000  0.000000000000000E+000   1.00000000000000             
    8    4                                                                      
   135.332893050000       9.929114410599999E-003  0.000000000000000E+000        
  0.000000000000000E+000  0.000000000000000E+000                                
   39.8602127440000       6.656884349599999E-002  0.000000000000000E+000        
  0.000000000000000E+000  0.000000000000000E+000                                
   14.4464283590000       0.222757683070000       0.000000000000000E+000        
  0.000000000000000E+000  0.000000000000000E+000                                
   5.64329003560000       0.403092243820000       0.000000000000000E+000        
  0.000000000000000E+000  0.000000000000000E+000                                
   2.16681886230000       0.416716679460000       0.000000000000000E+000        
  0.000000000000000E+000  0.000000000000000E+000                                
  0.765149705690000       0.000000000000000E+000  0.189355022880000             
  0.000000000000000E+000  0.000000000000000E+000                                
  0.424346530000000       0.000000000000000E+000  0.000000000000000E+000        
   1.00000000000000       0.000000000000000E+000                                
  0.163315270000000       0.000000000000000E+000  0.000000000000000E+000        
  0.000000000000000E+000   1.00000000000000                                     
    1    1                                                                      
  0.432719410000000        1.00000000000000                                     
FINISH                                                                          
 
********************************************************************************
 One- and two-electron integrals over symmetry-adapted AOs are calculated.

  Spherical harmonics are used.
  
   1 types of atoms
   3 symmetry operations

   Reflection in the YZ-plane
   Reflection in the XZ-plane
   Reflection in the XY-plane
  
  Integrals less than  0.10E-13 are neglected.

  Atomic type number  1 :
  -----------------------

    Nuclear charge:                       33
    number of symmetry independent atoms:  1
    highest orbital type:                  f

      1 groups of CGTOs of s type
      1 groups of CGTOs of p type
      1 groups of CGTOs of d type
      1 groups of CGTOs of f type

    nuclear coordinates (in a.u.) are :

    AS#1        0.000000000000000        0.000000000000000        1.986669074820000
  
   Basis function not normalized: 
   Center (as ordered in MOL file):   1
   Angular Momentum type          : s
   Offset within angular momentum :  1
   <chi|chi>                      :    1.0277819600
   Basis function not normalized: 
   Center (as ordered in MOL file):   1
   Angular Momentum type          : s
   Offset within angular momentum :  2
   <chi|chi>                      :    1.0121708709
   Basis function not normalized: 
   Center (as ordered in MOL file):   1
   Angular Momentum type          : s
   Offset within angular momentum :  3
   <chi|chi>                      :    1.7156760475
   Basis function not normalized: 
   Center (as ordered in MOL file):   1
   Angular Momentum type          : p
   Offset within angular momentum :  1
   <chi|chi>                      :    1.1481836361
   Basis function not normalized: 
   Center (as ordered in MOL file):   1
   Angular Momentum type          : p
   Offset within angular momentum :  2
   <chi|chi>                      :    0.9048496964
   Basis function not normalized: 
   Center (as ordered in MOL file):   1
   Angular Momentum type          : d
   Offset within angular momentum :  1
   <chi|chi>                      :    1.1006496627
   Basis function not normalized: 
   Center (as ordered in MOL file):   1
   Angular Momentum type          : d
   Offset within angular momentum :  2
   <chi|chi>                      :    5.2810851531
   Internuclear distances (A) :

     for atom AS#1 (coordinates :   0.00000   0.00000   1.98667)

     AS#1   5     distance is  2.103

   Group multiplication table :

         1   2   3   4   5   6   7   8
         2   1   4   3   6   5   8   7
         3   4   1   2   7   8   5   6
         4   3   2   1   8   7   6   5
         5   6   7   8   1   2   3   4
         6   5   8   7   2   1   4   3
         7   8   5   6   3   4   1   2
         8   7   6   5   4   3   2   1

   Gaussian basis information :

   atom                 exponent      coefficients

 AS#1  1    S   
+                 1  498032.421580   0.0002274   0.0000000   0.0000000   0.0000000   0.0000000   0.0000000
                  2   74656.868743   0.0017633   0.0000000   0.0000000   0.0000000   0.0000000   0.0000000
                  3   16990.960004   0.0091728   0.0000000   0.0000000   0.0000000   0.0000000   0.0000000
                  4    4809.620032   0.0373378   0.0000000   0.0000000   0.0000000   0.0000000   0.0000000
                  5    1566.288706   0.1219954   0.0000000   0.0000000   0.0000000   0.0000000   0.0000000
                  6     563.213605   0.2913748   0.0000000   0.0000000   0.0000000   0.0000000   0.0000000
                  7     219.111800   0.4232635   0.0000000   0.0000000   0.0000000   0.0000000   0.0000000
                  8      86.866061   0.2292146   0.0000000   0.0000000   0.0000000   0.0000000   0.0000000
                  9     538.195125   0.0000000  -0.0252542   0.0000000   0.0000000   0.0000000   0.0000000
                 10     167.148502   0.0000000  -0.1191546   0.0000000   0.0000000   0.0000000   0.0000000
                 11      27.605517   0.0000000   0.5462850   0.0000000   0.0000000   0.0000000   0.0000000
                 12      11.947859   0.0000000   0.5300152   0.0000000   0.0000000   0.0000000   0.0000000
                 13      18.538023   0.0000000   0.0000000  -0.2347919   0.0000000   0.0000000   0.0000000
                 14       3.201899   0.0000000   0.0000000   0.6916705   0.0000000   0.0000000   0.0000000
                 15       1.435652   0.0000000   0.0000000   0.0000000   1.0000000   0.0000000   0.0000000
                 16       0.318378   0.0000000   0.0000000   0.0000000   0.0000000   1.0000000   0.0000000
                 17       0.116226   0.0000000   0.0000000   0.0000000   0.0000000   0.0000000   1.0000000

 AS#1  5    S   
+                18  498032.421580   0.0002274   0.0000000   0.0000000   0.0000000   0.0000000   0.0000000
                 19   74656.868743   0.0017633   0.0000000   0.0000000   0.0000000   0.0000000   0.0000000
                 20   16990.960004   0.0091728   0.0000000   0.0000000   0.0000000   0.0000000   0.0000000
                 21    4809.620032   0.0373378   0.0000000   0.0000000   0.0000000   0.0000000   0.0000000
                 22    1566.288706   0.1219954   0.0000000   0.0000000   0.0000000   0.0000000   0.0000000
                 23     563.213605   0.2913748   0.0000000   0.0000000   0.0000000   0.0000000   0.0000000
                 24     219.111800   0.4232635   0.0000000   0.0000000   0.0000000   0.0000000   0.0000000
                 25      86.866061   0.2292146   0.0000000   0.0000000   0.0000000   0.0000000   0.0000000
                 26     538.195125   0.0000000  -0.0252542   0.0000000   0.0000000   0.0000000   0.0000000
                 27     167.148502   0.0000000  -0.1191546   0.0000000   0.0000000   0.0000000   0.0000000
                 28      27.605517   0.0000000   0.5462850   0.0000000   0.0000000   0.0000000   0.0000000
                 29      11.947859   0.0000000   0.5300152   0.0000000   0.0000000   0.0000000   0.0000000
                 30      18.538023   0.0000000   0.0000000  -0.2347919   0.0000000   0.0000000   0.0000000
                 31       3.201899   0.0000000   0.0000000   0.6916705   0.0000000   0.0000000   0.0000000
                 32       1.435652   0.0000000   0.0000000   0.0000000   1.0000000   0.0000000   0.0000000
                 33       0.318378   0.0000000   0.0000000   0.0000000   0.0000000   1.0000000   0.0000000
                 34       0.116226   0.0000000   0.0000000   0.0000000   0.0000000   0.0000000   1.0000000

 AS#1  1    X   
+                35    2678.942155   0.0023319   0.0000000   0.0000000   0.0000000   0.0000000
                 36     634.617658   0.0190421   0.0000000   0.0000000   0.0000000   0.0000000
                 37     203.939676   0.0902297   0.0000000   0.0000000   0.0000000   0.0000000
                 38      76.323890   0.2616904   0.0000000   0.0000000   0.0000000   0.0000000
                 39      30.664125   0.4185717   0.0000000   0.0000000   0.0000000   0.0000000
                 40      12.505057   0.2344783   0.0000000   0.0000000   0.0000000   0.0000000
                 41      49.256230   0.0000000  -0.0212355   0.0000000   0.0000000   0.0000000
                 42       7.727489   0.0000000   0.3047021   0.0000000   0.0000000   0.0000000
                 43       3.541049   0.0000000   0.5288837   0.0000000   0.0000000   0.0000000
                 44       1.698559   0.0000000   0.3727225   0.0000000   0.0000000   0.0000000
                 45       0.768481   0.0000000   0.0000000   1.0000000   0.0000000   0.0000000
                 46       0.300508   0.0000000   0.0000000   0.0000000   1.0000000   0.0000000
                 47       0.098191   0.0000000   0.0000000   0.0000000   0.0000000   1.0000000

 AS#1  5    X   
+                48    2678.942155   0.0023319   0.0000000   0.0000000   0.0000000   0.0000000
                 49     634.617658   0.0190421   0.0000000   0.0000000   0.0000000   0.0000000
                 50     203.939676   0.0902297   0.0000000   0.0000000   0.0000000   0.0000000
                 51      76.323890   0.2616904   0.0000000   0.0000000   0.0000000   0.0000000
                 52      30.664125   0.4185717   0.0000000   0.0000000   0.0000000   0.0000000
                 53      12.505057   0.2344783   0.0000000   0.0000000   0.0000000   0.0000000
                 54      49.256230   0.0000000  -0.0212355   0.0000000   0.0000000   0.0000000
                 55       7.727489   0.0000000   0.3047021   0.0000000   0.0000000   0.0000000
                 56       3.541049   0.0000000   0.5288837   0.0000000   0.0000000   0.0000000
                 57       1.698559   0.0000000   0.3727225   0.0000000   0.0000000   0.0000000
                 58       0.768481   0.0000000   0.0000000   1.0000000   0.0000000   0.0000000
                 59       0.300508   0.0000000   0.0000000   0.0000000   1.0000000   0.0000000
                 60       0.098191   0.0000000   0.0000000   0.0000000   0.0000000   1.0000000

 AS#1  1    Y   
+                61    2678.942155   0.0023319   0.0000000   0.0000000   0.0000000   0.0000000
                 62     634.617658   0.0190421   0.0000000   0.0000000   0.0000000   0.0000000
                 63     203.939676   0.0902297   0.0000000   0.0000000   0.0000000   0.0000000
                 64      76.323890   0.2616904   0.0000000   0.0000000   0.0000000   0.0000000
                 65      30.664125   0.4185717   0.0000000   0.0000000   0.0000000   0.0000000
                 66      12.505057   0.2344783   0.0000000   0.0000000   0.0000000   0.0000000
                 67      49.256230   0.0000000  -0.0212355   0.0000000   0.0000000   0.0000000
                 68       7.727489   0.0000000   0.3047021   0.0000000   0.0000000   0.0000000
                 69       3.541049   0.0000000   0.5288837   0.0000000   0.0000000   0.0000000
                 70       1.698559   0.0000000   0.3727225   0.0000000   0.0000000   0.0000000
                 71       0.768481   0.0000000   0.0000000   1.0000000   0.0000000   0.0000000
                 72       0.300508   0.0000000   0.0000000   0.0000000   1.0000000   0.0000000
                 73       0.098191   0.0000000   0.0000000   0.0000000   0.0000000   1.0000000

 AS#1  5    Y   
+                74    2678.942155   0.0023319   0.0000000   0.0000000   0.0000000   0.0000000
                 75     634.617658   0.0190421   0.0000000   0.0000000   0.0000000   0.0000000
                 76     203.939676   0.0902297   0.0000000   0.0000000   0.0000000   0.0000000
                 77      76.323890   0.2616904   0.0000000   0.0000000   0.0000000   0.0000000
                 78      30.664125   0.4185717   0.0000000   0.0000000   0.0000000   0.0000000
                 79      12.505057   0.2344783   0.0000000   0.0000000   0.0000000   0.0000000
                 80      49.256230   0.0000000  -0.0212355   0.0000000   0.0000000   0.0000000
                 81       7.727489   0.0000000   0.3047021   0.0000000   0.0000000   0.0000000
                 82       3.541049   0.0000000   0.5288837   0.0000000   0.0000000   0.0000000
                 83       1.698559   0.0000000   0.3727225   0.0000000   0.0000000   0.0000000
                 84       0.768481   0.0000000   0.0000000   1.0000000   0.0000000   0.0000000
                 85       0.300508   0.0000000   0.0000000   0.0000000   1.0000000   0.0000000
                 86       0.098191   0.0000000   0.0000000   0.0000000   0.0000000   1.0000000

 AS#1  1    Z   
+                87    2678.942155   0.0023319   0.0000000   0.0000000   0.0000000   0.0000000
                 88     634.617658   0.0190421   0.0000000   0.0000000   0.0000000   0.0000000
                 89     203.939676   0.0902297   0.0000000   0.0000000   0.0000000   0.0000000
                 90      76.323890   0.2616904   0.0000000   0.0000000   0.0000000   0.0000000
                 91      30.664125   0.4185717   0.0000000   0.0000000   0.0000000   0.0000000
                 92      12.505057   0.2344783   0.0000000   0.0000000   0.0000000   0.0000000
                 93      49.256230   0.0000000  -0.0212355   0.0000000   0.0000000   0.0000000
                 94       7.727489   0.0000000   0.3047021   0.0000000   0.0000000   0.0000000
                 95       3.541049   0.0000000   0.5288837   0.0000000   0.0000000   0.0000000
                 96       1.698559   0.0000000   0.3727225   0.0000000   0.0000000   0.0000000
                 97       0.768481   0.0000000   0.0000000   1.0000000   0.0000000   0.0000000
                 98       0.300508   0.0000000   0.0000000   0.0000000   1.0000000   0.0000000
                 99       0.098191   0.0000000   0.0000000   0.0000000   0.0000000   1.0000000

 AS#1  5    Z   
+               100    2678.942155   0.0023319   0.0000000   0.0000000   0.0000000   0.0000000
                101     634.617658   0.0190421   0.0000000   0.0000000   0.0000000   0.0000000
                102     203.939676   0.0902297   0.0000000   0.0000000   0.0000000   0.0000000
                103      76.323890   0.2616904   0.0000000   0.0000000   0.0000000   0.0000000
                104      30.664125   0.4185717   0.0000000   0.0000000   0.0000000   0.0000000
                105      12.505057   0.2344783   0.0000000   0.0000000   0.0000000   0.0000000
                106      49.256230   0.0000000  -0.0212355   0.0000000   0.0000000   0.0000000
                107       7.727489   0.0000000   0.3047021   0.0000000   0.0000000   0.0000000
                108       3.541049   0.0000000   0.5288837   0.0000000   0.0000000   0.0000000
                109       1.698559   0.0000000   0.3727225   0.0000000   0.0000000   0.0000000
                110       0.768481   0.0000000   0.0000000   1.0000000   0.0000000   0.0000000
                111       0.300508   0.0000000   0.0000000   0.0000000   1.0000000   0.0000000
                112       0.098191   0.0000000   0.0000000   0.0000000   0.0000000   1.0000000

 AS#1  1    XX  
+               113     135.332893   0.0099291   0.0000000   0.0000000   0.0000000
                114      39.860213   0.0665688   0.0000000   0.0000000   0.0000000
                115      14.446428   0.2227577   0.0000000   0.0000000   0.0000000
                116       5.643290   0.4030922   0.0000000   0.0000000   0.0000000
                117       2.166819   0.4167167   0.0000000   0.0000000   0.0000000
                118       0.765150   0.0000000   0.1893550   0.0000000   0.0000000
                119       0.424347   0.0000000   0.0000000   1.0000000   0.0000000
                120       0.163315   0.0000000   0.0000000   0.0000000   1.0000000

 AS#1  5    XX  
+               121     135.332893   0.0099291   0.0000000   0.0000000   0.0000000
                122      39.860213   0.0665688   0.0000000   0.0000000   0.0000000
                123      14.446428   0.2227577   0.0000000   0.0000000   0.0000000
                124       5.643290   0.4030922   0.0000000   0.0000000   0.0000000
                125       2.166819   0.4167167   0.0000000   0.0000000   0.0000000
                126       0.765150   0.0000000   0.1893550   0.0000000   0.0000000
                127       0.424347   0.0000000   0.0000000   1.0000000   0.0000000
                128       0.163315   0.0000000   0.0000000   0.0000000   1.0000000

 AS#1  1    XY  
+               129     135.332893   0.0099291   0.0000000   0.0000000   0.0000000
                130      39.860213   0.0665688   0.0000000   0.0000000   0.0000000
                131      14.446428   0.2227577   0.0000000   0.0000000   0.0000000
                132       5.643290   0.4030922   0.0000000   0.0000000   0.0000000
                133       2.166819   0.4167167   0.0000000   0.0000000   0.0000000
                134       0.765150   0.0000000   0.1893550   0.0000000   0.0000000
                135       0.424347   0.0000000   0.0000000   1.0000000   0.0000000
                136       0.163315   0.0000000   0.0000000   0.0000000   1.0000000

 AS#1  5    XY  
+               137     135.332893   0.0099291   0.0000000   0.0000000   0.0000000
                138      39.860213   0.0665688   0.0000000   0.0000000   0.0000000
                139      14.446428   0.2227577   0.0000000   0.0000000   0.0000000
                140       5.643290   0.4030922   0.0000000   0.0000000   0.0000000
                141       2.166819   0.4167167   0.0000000   0.0000000   0.0000000
                142       0.765150   0.0000000   0.1893550   0.0000000   0.0000000
                143       0.424347   0.0000000   0.0000000   1.0000000   0.0000000
                144       0.163315   0.0000000   0.0000000   0.0000000   1.0000000

 AS#1  1    XZ  
+               145     135.332893   0.0099291   0.0000000   0.0000000   0.0000000
                146      39.860213   0.0665688   0.0000000   0.0000000   0.0000000
                147      14.446428   0.2227577   0.0000000   0.0000000   0.0000000
                148       5.643290   0.4030922   0.0000000   0.0000000   0.0000000
                149       2.166819   0.4167167   0.0000000   0.0000000   0.0000000
                150       0.765150   0.0000000   0.1893550   0.0000000   0.0000000
                151       0.424347   0.0000000   0.0000000   1.0000000   0.0000000
                152       0.163315   0.0000000   0.0000000   0.0000000   1.0000000

 AS#1  5    XZ  
+               153     135.332893   0.0099291   0.0000000   0.0000000   0.0000000
                154      39.860213   0.0665688   0.0000000   0.0000000   0.0000000
                155      14.446428   0.2227577   0.0000000   0.0000000   0.0000000
                156       5.643290   0.4030922   0.0000000   0.0000000   0.0000000
                157       2.166819   0.4167167   0.0000000   0.0000000   0.0000000
                158       0.765150   0.0000000   0.1893550   0.0000000   0.0000000
                159       0.424347   0.0000000   0.0000000   1.0000000   0.0000000
                160       0.163315   0.0000000   0.0000000   0.0000000   1.0000000

 AS#1  1    YY  
+               161     135.332893   0.0099291   0.0000000   0.0000000   0.0000000
                162      39.860213   0.0665688   0.0000000   0.0000000   0.0000000
                163      14.446428   0.2227577   0.0000000   0.0000000   0.0000000
                164       5.643290   0.4030922   0.0000000   0.0000000   0.0000000
                165       2.166819   0.4167167   0.0000000   0.0000000   0.0000000
                166       0.765150   0.0000000   0.1893550   0.0000000   0.0000000
                167       0.424347   0.0000000   0.0000000   1.0000000   0.0000000
                168       0.163315   0.0000000   0.0000000   0.0000000   1.0000000

 AS#1  5    YY  
+               169     135.332893   0.0099291   0.0000000   0.0000000   0.0000000
                170      39.860213   0.0665688   0.0000000   0.0000000   0.0000000
                171      14.446428   0.2227577   0.0000000   0.0000000   0.0000000
                172       5.643290   0.4030922   0.0000000   0.0000000   0.0000000
                173       2.166819   0.4167167   0.0000000   0.0000000   0.0000000
                174       0.765150   0.0000000   0.1893550   0.0000000   0.0000000
                175       0.424347   0.0000000   0.0000000   1.0000000   0.0000000
                176       0.163315   0.0000000   0.0000000   0.0000000   1.0000000

 AS#1  1    YZ  
+               177     135.332893   0.0099291   0.0000000   0.0000000   0.0000000
                178      39.860213   0.0665688   0.0000000   0.0000000   0.0000000
                179      14.446428   0.2227577   0.0000000   0.0000000   0.0000000
                180       5.643290   0.4030922   0.0000000   0.0000000   0.0000000
                181       2.166819   0.4167167   0.0000000   0.0000000   0.0000000
                182       0.765150   0.0000000   0.1893550   0.0000000   0.0000000
                183       0.424347   0.0000000   0.0000000   1.0000000   0.0000000
                184       0.163315   0.0000000   0.0000000   0.0000000   1.0000000

 AS#1  5    YZ  
+               185     135.332893   0.0099291   0.0000000   0.0000000   0.0000000
                186      39.860213   0.0665688   0.0000000   0.0000000   0.0000000
                187      14.446428   0.2227577   0.0000000   0.0000000   0.0000000
                188       5.643290   0.4030922   0.0000000   0.0000000   0.0000000
                189       2.166819   0.4167167   0.0000000   0.0000000   0.0000000
                190       0.765150   0.0000000   0.1893550   0.0000000   0.0000000
                191       0.424347   0.0000000   0.0000000   1.0000000   0.0000000
                192       0.163315   0.0000000   0.0000000   0.0000000   1.0000000

 AS#1  1    ZZ  
+               193     135.332893   0.0099291   0.0000000   0.0000000   0.0000000
                194      39.860213   0.0665688   0.0000000   0.0000000   0.0000000
                195      14.446428   0.2227577   0.0000000   0.0000000   0.0000000
                196       5.643290   0.4030922   0.0000000   0.0000000   0.0000000
                197       2.166819   0.4167167   0.0000000   0.0000000   0.0000000
                198       0.765150   0.0000000   0.1893550   0.0000000   0.0000000
                199       0.424347   0.0000000   0.0000000   1.0000000   0.0000000
                200       0.163315   0.0000000   0.0000000   0.0000000   1.0000000

 AS#1  5    ZZ  
+               201     135.332893   0.0099291   0.0000000   0.0000000   0.0000000
                202      39.860213   0.0665688   0.0000000   0.0000000   0.0000000
                203      14.446428   0.2227577   0.0000000   0.0000000   0.0000000
                204       5.643290   0.4030922   0.0000000   0.0000000   0.0000000
                205       2.166819   0.4167167   0.0000000   0.0000000   0.0000000
                206       0.765150   0.0000000   0.1893550   0.0000000   0.0000000
                207       0.424347   0.0000000   0.0000000   1.0000000   0.0000000
                208       0.163315   0.0000000   0.0000000   0.0000000   1.0000000

 AS#1  1    F300
+               209       0.432719   1.0000000

 AS#1  5    F300
+               210       0.432719   1.0000000

 AS#1  1    F210
+               211       0.432719   1.0000000

 AS#1  5    F210
+               212       0.432719   1.0000000

 AS#1  1    F201
+               213       0.432719   1.0000000

 AS#1  5    F201
+               214       0.432719   1.0000000

 AS#1  1    F120
+               215       0.432719   1.0000000

 AS#1  5    F120
+               216       0.432719   1.0000000

 AS#1  1    F111
+               217       0.432719   1.0000000

 AS#1  5    F111
+               218       0.432719   1.0000000

 AS#1  1    F102
+               219       0.432719   1.0000000

 AS#1  5    F102
+               220       0.432719   1.0000000

 AS#1  1    F030
+               221       0.432719   1.0000000

 AS#1  5    F030
+               222       0.432719   1.0000000

 AS#1  1    F021
+               223       0.432719   1.0000000

 AS#1  5    F021
+               224       0.432719   1.0000000

 AS#1  1    F012
+               225       0.432719   1.0000000

 AS#1  5    F012
+               226       0.432719   1.0000000

 AS#1  1    F003
+               227       0.432719   1.0000000

 AS#1  5    F003
+               228       0.432719   1.0000000
110 96
  1  2  3  4  5  6  7  8  9 10 11 12 13 14 15 16 17 18 19************ 20 21
*** 22 23 24 25 26 27 28 29 30 31 32*** 33 34 35 36 37 38 39 40 41 42 43***
 44 45 46 47 48 49 50 51 52 53 54 55 56 57 58 59 60 61 62 63 64 65 66 67***
********* 68 69*** 70 71 72 73 74 75 76 77 78 79 80*** 81 82 83 84 85 86 87
 88 89 90 91*** 92 93 94 95 96
1

             SYMMETRY TRANSFORMATION INFO
             96 SYMMETRY ADAPTED BASIS FUNCTIONS 


          irreducible representation number 1

    1    1  AS#1     1s     2   1   1.0   2   1.0
    2    2  AS#1     1s     2   3   1.0   4   1.0
    3    3  AS#1     1s     2   5   1.0   6   1.0
    4    4  AS#1     1s     2   7   1.0   8   1.0
    5    5  AS#1     1s     2   9   1.0  10   1.0
    6    6  AS#1     1s     2  11   1.0  12   1.0
    7    7  AS#1     2pz    2  33   1.0  34  -1.0
    8    8  AS#1     2pz    2  35   1.0  36  -1.0
    9    9  AS#1     2pz    2  37   1.0  38  -1.0
   10   10  AS#1     2pz    2  39   1.0  40  -1.0
   11   11  AS#1     2pz    2  41   1.0  42  -1.0
   12   12  AS#1     3d2-   6  43  -1.0  67  -1.0  83   2.0  44  -1.0  68  -1.0  84   2.0
   13   13  AS#1     3d2-   6  45  -1.0  69  -1.0  85   2.0  46  -1.0  70  -1.0  86   2.0
   14   14  AS#1     3d2-   6  47  -1.0  71  -1.0  87   2.0  48  -1.0  72  -1.0  88   2.0
   15   15  AS#1     3d2-   6  49  -1.0  73  -1.0  89   2.0  50  -1.0  74  -1.0  90   2.0
   16   16  AS#1     3d1+   4  43   1.0  67  -1.0  44   1.0  68  -1.0
   17   17  AS#1     3d1+   4  45   1.0  69  -1.0  46   1.0  70  -1.0
   18   18  AS#1     3d1+   4  47   1.0  71  -1.0  48   1.0  72  -1.0
   19   19  AS#1     3d1+   4  49   1.0  73  -1.0  50   1.0  74  -1.0
   20   20  AS#1     4f1-   6  95  -3.0 105  -3.0 109   2.0  96   3.0 106   3.0 110  -2.0
   21   21  AS#1     4f3+   4  95   1.0 105  -1.0  96  -1.0 106   1.0


          irreducible representation number 2

   22    1  AS#1     2px    2  13   1.0  14   1.0
   23    2  AS#1     2px    2  15   1.0  16   1.0
   24    3  AS#1     2px    2  17   1.0  18   1.0
   25    4  AS#1     2px    2  19   1.0  20   1.0
   26    5  AS#1     2px    2  21   1.0  22   1.0
   27    6  AS#1     3d0    2  59   1.0  60  -1.0
   28    7  AS#1     3d0    2  61   1.0  62  -1.0
   29    8  AS#1     3d0    2  63   1.0  64  -1.0
   30    9  AS#1     3d0    2  65   1.0  66  -1.0
   31   10  AS#1     4f3-   6  91  -1.0  97  -1.0 101   4.0  92  -1.0  98  -1.0 102   4.0
   32   11  AS#1     4f0    4  91   1.0  97  -3.0  92   1.0  98  -3.0


          irreducible representation number 3

   33    1  AS#1     2py    2  23   1.0  24   1.0
   34    2  AS#1     2py    2  25   1.0  26   1.0
   35    3  AS#1     2py    2  27   1.0  28   1.0
   36    4  AS#1     2py    2  29   1.0  30   1.0
   37    5  AS#1     2py    2  31   1.0  32   1.0
   38    6  AS#1     3d2+   2  75   1.0  76  -1.0
   39    7  AS#1     3d2+   2  77   1.0  78  -1.0
   40    8  AS#1     3d2+   2  79   1.0  80  -1.0
   41    9  AS#1     3d2+   2  81   1.0  82  -1.0
   42   10  AS#1     4f2-   6  93  -1.0 103  -1.0 107   4.0  94  -1.0 104  -1.0 108   4.0
   43   11  AS#1     4f2+   4  93   3.0 103  -1.0  94   3.0 104  -1.0


          irreducible representation number 4

   44    1  AS#1     3d1-   2  51   1.0  52   1.0
   45    2  AS#1     3d1-   2  53   1.0  54   1.0
   46    3  AS#1     3d1-   2  55   1.0  56   1.0
   47    4  AS#1     3d1-   2  57   1.0  58   1.0
   48    5  AS#1     4f1+   2  99   1.0 100  -1.0


          irreducible representation number 5

   49    1  AS#1     1s     2   1   1.0   2  -1.0
   50    2  AS#1     1s     2   3   1.0   4  -1.0
   51    3  AS#1     1s     2   5   1.0   6  -1.0
   52    4  AS#1     1s     2   7   1.0   8  -1.0
   53    5  AS#1     1s     2   9   1.0  10  -1.0
   54    6  AS#1     1s     2  11   1.0  12  -1.0
   55    7  AS#1     2pz    2  33   1.0  34   1.0
   56    8  AS#1     2pz    2  35   1.0  36   1.0
   57    9  AS#1     2pz    2  37   1.0  38   1.0
   58   10  AS#1     2pz    2  39   1.0  40   1.0
   59   11  AS#1     2pz    2  41   1.0  42   1.0
   60   12  AS#1     3d2-   6  43  -1.0  67  -1.0  83   2.0  44   1.0  68   1.0  84  -2.0
   61   13  AS#1     3d2-   6  45  -1.0  69  -1.0  85   2.0  46   1.0  70   1.0  86  -2.0
   62   14  AS#1     3d2-   6  47  -1.0  71  -1.0  87   2.0  48   1.0  72   1.0  88  -2.0
   63   15  AS#1     3d2-   6  49  -1.0  73  -1.0  89   2.0  50   1.0  74   1.0  90  -2.0
   64   16  AS#1     3d1+   4  43   1.0  67  -1.0  44  -1.0  68   1.0
   65   17  AS#1     3d1+   4  45   1.0  69  -1.0  46  -1.0  70   1.0
   66   18  AS#1     3d1+   4  47   1.0  71  -1.0  48  -1.0  72   1.0
   67   19  AS#1     3d1+   4  49   1.0  73  -1.0  50  -1.0  74   1.0
   68   20  AS#1     4f1-   6  95  -3.0 105  -3.0 109   2.0  96  -3.0 106  -3.0 110   2.0
   69   21  AS#1     4f3+   4  95   1.0 105  -1.0  96   1.0 106  -1.0


          irreducible representation number 6

   70    1  AS#1     2px    2  13   1.0  14  -1.0
   71    2  AS#1     2px    2  15   1.0  16  -1.0
   72    3  AS#1     2px    2  17   1.0  18  -1.0
   73    4  AS#1     2px    2  19   1.0  20  -1.0
   74    5  AS#1     2px    2  21   1.0  22  -1.0
   75    6  AS#1     3d0    2  59   1.0  60   1.0
   76    7  AS#1     3d0    2  61   1.0  62   1.0
   77    8  AS#1     3d0    2  63   1.0  64   1.0
   78    9  AS#1     3d0    2  65   1.0  66   1.0
   79   10  AS#1     4f3-   6  91  -1.0  97  -1.0 101   4.0  92   1.0  98   1.0 102  -4.0
   80   11  AS#1     4f0    4  91   1.0  97  -3.0  92  -1.0  98   3.0


          irreducible representation number 7

   81    1  AS#1     2py    2  23   1.0  24  -1.0
   82    2  AS#1     2py    2  25   1.0  26  -1.0
   83    3  AS#1     2py    2  27   1.0  28  -1.0
   84    4  AS#1     2py    2  29   1.0  30  -1.0
   85    5  AS#1     2py    2  31   1.0  32  -1.0
   86    6  AS#1     3d2+   2  75   1.0  76   1.0
   87    7  AS#1     3d2+   2  77   1.0  78   1.0
   88    8  AS#1     3d2+   2  79   1.0  80   1.0
   89    9  AS#1     3d2+   2  81   1.0  82   1.0
   90   10  AS#1     4f2-   6  93  -1.0 103  -1.0 107   4.0  94   1.0 104   1.0 108  -4.0
   91   11  AS#1     4f2+   4  93   3.0 103  -1.0  94  -3.0 104   1.0


          irreducible representation number 8

   92    1  AS#1     3d1-   2  51   1.0  52  -1.0
   93    2  AS#1     3d1-   2  53   1.0  54  -1.0
   94    3  AS#1     3d1-   2  55   1.0  56  -1.0
   95    4  AS#1     3d1-   2  57   1.0  58  -1.0
   96    5  AS#1     4f1+   2  99   1.0 100   1.0
  Nuclear repulsion energy :  274.0768489837 a.u.
  required memory for a1 array               10029264  words 
  required memory for a2 array                2676157  words 
 @GETMEM-I,  Allocated     112 MB of main memory.
  @MOLECU-I, One electron integrals (CPU/WALL):        0.04/       0.05 seconds.
  @TWOEL-I,      38542 integrals of symmetry type  I I I I
  @TWOEL-I,     316586 integrals of symmetry type  I J I J
  @TWOEL-I,     183431 integrals of symmetry type  I I J J
  @TWOEL-I,     654283 integrals of symmetry type  I J K L
  @TWOEL-I, Total number of 2-e integrals    1192842.
  @MOLECU-I, Two electron integrals (CPU/WALL):        1.79/       1.83 seconds.
  @CHECKOUT-I, Total execution time (CPU/WALL):        2.30/       3.08 seconds.
--executable xvmol finished with status     0 in        3.15 seconds (walltime).
 --invoking executable--
/home/nike/cfour_v2.00beta/cfour_v2.00beta/bin/xvmol2ja
 @GETMEM-I,  Allocated   11444 MB of main memory.
  @CHECKOUT-I, Total execution time (CPU/WALL):        0.02/       0.02 seconds.
--executable xvmol2ja finished with status     0 in        0.06 seconds (walltime).
 --invoking executable--
/home/nike/cfour_v2.00beta/cfour_v2.00beta/bin/xvscf
  There are   96 functions in the AO basis.

  There are 8 irreducible representations.

       Irrep        # of functions
         1                 21
         2                 11
         3                 11
         4                  5
         5                 21
         6                 11
         7                 11
         8                  5


  Parameters for SCF calculation: 
        SCF reference function:  RHF  
  Maximum number of iterations: ****
     Full symmetry point group: DXh 
     Computational point group: D2h 
        Initial density matrix: MOREAD                 
     SCF convergence tolerance: 10**(-13)
  DIIS convergence acceleration:  ON
          Latest start for DIIS:   5
                     DIIS order:   6

  Memory information:     421666 words required.
  Fock matrices are constructed from AO integral file.
 @GETMEM-I,  Allocated       3 MB of main memory.
  Initialization and symmetry analysis required      0.022 seconds.

  @INITGES-I, Occupancies from core Hamiltonian:

          Alpha population by irrep:   9    3    3    1    9    4    3    1
           Beta population by irrep:   9    3    3    1    9    4    3    1


 total no. of electrons in initial guess :  0.000000000000000E+000
  --------------------------------------------------------------------
  Iteration         Total Energy            Largest Density Difference
  --------------------------------------------------------------------
       0           274.076848983685863              0.0000000000D+00
   current occupation vector 
     9  3  3  1  9  4  3  1
     9  3  3  1  9  4  3  1
  processed                  38542  ao basis integrals from 
                    65  buffers.
  processed                 183431  ao basis integrals from 
                   306  buffers.
  processed                 316586  ao basis integrals from 
                   528  buffers.
       1         -4402.687306967754012              0.9516118101D+01
   current occupation vector 
     9  3  3  1  9  4  3  1
     9  3  3  1  9  4  3  1
  processed                  38542  ao basis integrals from 
                    65  buffers.
  processed                 183431  ao basis integrals from 
                   306  buffers.
  processed                 316586  ao basis integrals from 
                   528  buffers.
       2         -4291.998996712508415              0.8012081756D+02
   current occupation vector 
     8  4  4  1  9  3  3  1
     8  4  4  1  9  3  3  1
  processed                  38542  ao basis integrals from 
                    65  buffers.
  processed                 183431  ao basis integrals from 
                   306  buffers.
  processed                 316586  ao basis integrals from 
                   528  buffers.
       3         -4432.697292297397325              0.8406009338D+02
   current occupation vector 
     9  4  4  1  8  3  3  1
     9  4  4  1  8  3  3  1
  processed                  38542  ao basis integrals from 
                    65  buffers.
  processed                 183431  ao basis integrals from 
                   306  buffers.
  processed                 316586  ao basis integrals from 
                   528  buffers.
       4         -4306.660415990326328              0.6951255797D+02
   current occupation vector 
     8  4  4  1  9  3  3  1
     8  4  4  1  9  3  3  1
 
 sum over diagonal and offdiagdiagonal of C(T)*S*C for irrep
                     1
 -7.061018436615996E-014  1.559046227153618E-013
 reorthoganalization of MOs is carried out
 sum over diagonal and offdiagdiagonal of C(T)*S*C for irrep
                     1
 -3.330669073875470E-016  4.394510770486368E-015
 
 sum over diagonal and offdiagdiagonal of C(T)*S*C for irrep
                     2
  3.996802888650564E-014  7.915127768798490E-015
 reorthoganalization of MOs is carried out
 sum over diagonal and offdiagdiagonal of C(T)*S*C for irrep
                     2
  1.110223024625157E-016 -1.017576958762463E-015
 
 sum over diagonal and offdiagdiagonal of C(T)*S*C for irrep
                     3
  1.276756478318930E-014 -8.062417018428277E-014
 reorthoganalization of MOs is carried out
 sum over diagonal and offdiagdiagonal of C(T)*S*C for irrep
                     3
  6.661338147750939E-016  9.528600088396774E-016
 
 sum over diagonal and offdiagdiagonal of C(T)*S*C for irrep
                     4
 -1.443289932012704E-015  5.850936081599457E-015
 reorthoganalization of MOs is carried out
 sum over diagonal and offdiagdiagonal of C(T)*S*C for irrep
                     4
 -8.881784197001252E-016  4.820687973219779E-016
 
 sum over diagonal and offdiagdiagonal of C(T)*S*C for irrep
                     5
 -9.492406860545088E-014  6.748805944747822E-014
 reorthoganalization of MOs is carried out
 sum over diagonal and offdiagdiagonal of C(T)*S*C for irrep
                     5
  1.332267629550188E-014 -1.131841668175768E-014
 
 sum over diagonal and offdiagdiagonal of C(T)*S*C for irrep
                     6
  4.107825191113079E-014 -3.720745679715925E-014
 reorthoganalization of MOs is carried out
 sum over diagonal and offdiagdiagonal of C(T)*S*C for irrep
                     6
 -9.992007221626409E-016  3.564079862358056E-015
 
 sum over diagonal and offdiagdiagonal of C(T)*S*C for irrep
                     7
  2.753353101070388E-014  1.126985015391965E-014
 reorthoganalization of MOs is carried out
 sum over diagonal and offdiagdiagonal of C(T)*S*C for irrep
                     7
  3.330669073875470E-016 -4.199117782244757E-015
 
 sum over diagonal and offdiagdiagonal of C(T)*S*C for irrep
                     8
 -7.771561172376096E-016 -7.298872265625469E-015
 reorthoganalization of MOs is carried out
 sum over diagonal and offdiagdiagonal of C(T)*S*C for irrep
                     8
  2.220446049250313E-016  5.105909971261384E-016
  processed                  38542  ao basis integrals from 
                    65  buffers.
  processed                 183431  ao basis integrals from 
                   306  buffers.
  processed                 316586  ao basis integrals from 
                   528  buffers.
       5         -4434.076881604067239              0.6951139778D+02
   current occupation vector 
     9  4  4  1  8  3  3  1
     9  4  4  1  8  3  3  1
  processed                  38542  ao basis integrals from 
                    65  buffers.
  processed                 183431  ao basis integrals from 
                   306  buffers.
  processed                 316586  ao basis integrals from 
                   528  buffers.
       6         -4465.527265932655610              0.2998471735D+01
   current occupation vector 
     9  4  4  1  8  3  3  1
     9  4  4  1  8  3  3  1
  processed                  38542  ao basis integrals from 
                    65  buffers.
  processed                 183431  ao basis integrals from 
                   306  buffers.
  processed                 316586  ao basis integrals from 
                   528  buffers.
       7         -4467.907213272267654              0.6693772344D+00
   current occupation vector 
     9  4  4  1  8  3  3  1
     9  4  4  1  8  3  3  1
  processed                  38542  ao basis integrals from 
                    65  buffers.
  processed                 183431  ao basis integrals from 
                   306  buffers.
  processed                 316586  ao basis integrals from 
                   528  buffers.
       8         -4468.398987388601199              0.4595207632D+00
   current occupation vector 
     9  4  4  1  8  3  3  1
     9  4  4  1  8  3  3  1
  processed                  38542  ao basis integrals from 
                    65  buffers.
  processed                 183431  ao basis integrals from 
                   306  buffers.
  processed                 316586  ao basis integrals from 
                   528  buffers.
       9         -4468.406975070246517              0.3174865500D-01
   current occupation vector 
     9  4  4  1  8  3  3  1
     9  4  4  1  8  3  3  1
 
 sum over diagonal and offdiagdiagonal of C(T)*S*C for irrep
                     1
 -7.815970093361102E-014  6.299890905236951E-014
 reorthoganalization of MOs is carried out
 sum over diagonal and offdiagdiagonal of C(T)*S*C for irrep
                     1
 -3.108624468950438E-015 -2.690669106482915E-015
 
 sum over diagonal and offdiagdiagonal of C(T)*S*C for irrep
                     2
  4.152234112098085E-014 -8.414325535813534E-015
 reorthoganalization of MOs is carried out
 sum over diagonal and offdiagdiagonal of C(T)*S*C for irrep
                     2
 -5.551115123125783E-016  7.178016825467494E-016
 
 sum over diagonal and offdiagdiagonal of C(T)*S*C for irrep
                     3
  1.598721155460225E-014  2.938739710852670E-015
 reorthoganalization of MOs is carried out
 sum over diagonal and offdiagdiagonal of C(T)*S*C for irrep
                     3
 -1.110223024625157E-016  8.230150443864986E-016
 
 sum over diagonal and offdiagdiagonal of C(T)*S*C for irrep
                     4
  8.881784197001252E-016 -1.792378656216855E-015
 reorthoganalization of MOs is carried out
 sum over diagonal and offdiagdiagonal of C(T)*S*C for irrep
                     4
  8.881784197001252E-016  1.634911229101075E-017
 
 sum over diagonal and offdiagdiagonal of C(T)*S*C for irrep
                     5
 -8.204548151979907E-014  5.028045675640543E-015
 reorthoganalization of MOs is carried out
 sum over diagonal and offdiagdiagonal of C(T)*S*C for irrep
                     5
  1.032507412901396E-014 -1.554337623952442E-014
 
 sum over diagonal and offdiagdiagonal of C(T)*S*C for irrep
                     6
  2.742250870824137E-014  1.589660380807583E-014
 reorthoganalization of MOs is carried out
 sum over diagonal and offdiagdiagonal of C(T)*S*C for irrep
                     6
  2.220446049250313E-016  1.579935274096310E-015
 
 sum over diagonal and offdiagdiagonal of C(T)*S*C for irrep
                     7
  6.328271240363392E-015  1.390974835958899E-015
 reorthoganalization of MOs is carried out
 sum over diagonal and offdiagdiagonal of C(T)*S*C for irrep
                     7
  9.992007221626409E-016 -1.484088585265625E-015
 
 sum over diagonal and offdiagdiagonal of C(T)*S*C for irrep
                     8
 -2.220446049250313E-016 -5.329604392601464E-015
 reorthoganalization of MOs is carried out
 sum over diagonal and offdiagdiagonal of C(T)*S*C for irrep
                     8
  3.330669073875470E-016 -1.501610885971177E-016
  processed                  38542  ao basis integrals from 
                    65  buffers.
  processed                 183431  ao basis integrals from 
                   306  buffers.
  processed                 316586  ao basis integrals from 
                   528  buffers.
      10         -4468.407113642936565              0.1544132685D-01
   current occupation vector 
     9  4  4  1  8  3  3  1
     9  4  4  1  8  3  3  1
  processed                  38542  ao basis integrals from 
                    65  buffers.
  processed                 183431  ao basis integrals from 
                   306  buffers.
  processed                 316586  ao basis integrals from 
                   528  buffers.
      11         -4468.407119017104378              0.4182226399D-02
   current occupation vector 
     9  4  4  1  8  3  3  1
     9  4  4  1  8  3  3  1
  processed                  38542  ao basis integrals from 
                    65  buffers.
  processed                 183431  ao basis integrals from 
                   306  buffers.
  processed                 316586  ao basis integrals from 
                   528  buffers.
      12         -4468.407119166432494              0.3502764060D-03
   current occupation vector 
     9  4  4  1  8  3  3  1
     9  4  4  1  8  3  3  1
  processed                  38542  ao basis integrals from 
                    65  buffers.
  processed                 183431  ao basis integrals from 
                   306  buffers.
  processed                 316586  ao basis integrals from 
                   528  buffers.
      13         -4468.407119169409270              0.4598822209D-04
   current occupation vector 
     9  4  4  1  8  3  3  1
     9  4  4  1  8  3  3  1
  processed                  38542  ao basis integrals from 
                    65  buffers.
  processed                 183431  ao basis integrals from 
                   306  buffers.
  processed                 316586  ao basis integrals from 
                   528  buffers.
      14         -4468.407119169468388              0.3657494706D-05
   current occupation vector 
     9  4  4  1  8  3  3  1
     9  4  4  1  8  3  3  1
 
 sum over diagonal and offdiagdiagonal of C(T)*S*C for irrep
                     1
 -9.503509090791340E-014  8.364083467577868E-014
 reorthoganalization of MOs is carried out
 sum over diagonal and offdiagdiagonal of C(T)*S*C for irrep
                     1
 -3.330669073875470E-015  1.748428192217703E-015
 
 sum over diagonal and offdiagdiagonal of C(T)*S*C for irrep
                     2
  3.996802888650564E-014 -9.121291630778180E-016
 reorthoganalization of MOs is carried out
 sum over diagonal and offdiagdiagonal of C(T)*S*C for irrep
                     2
 -1.110223024625157E-016 -1.231114042480059E-015
 
 sum over diagonal and offdiagdiagonal of C(T)*S*C for irrep
                     3
  1.576516694967722E-014  5.184253665307372E-015
 reorthoganalization of MOs is carried out
 sum over diagonal and offdiagdiagonal of C(T)*S*C for irrep
                     3
  4.440892098500626E-016  4.972019883256261E-016
 
 sum over diagonal and offdiagdiagonal of C(T)*S*C for irrep
                     4
  8.881784197001252E-016  5.973384069229304E-016
 reorthoganalization of MOs is carried out
 sum over diagonal and offdiagdiagonal of C(T)*S*C for irrep
                     4
 -4.440892098500626E-016  2.811633947312801E-016
 
 sum over diagonal and offdiagdiagonal of C(T)*S*C for irrep
                     5
 -5.906386491005833E-014  2.884596954180333E-014
 reorthoganalization of MOs is carried out
 sum over diagonal and offdiagdiagonal of C(T)*S*C for irrep
                     5
  5.662137425588298E-015 -9.142603745528696E-016
 
 sum over diagonal and offdiagdiagonal of C(T)*S*C for irrep
                     6
  3.841371665203042E-014 -5.209685167644950E-016
 reorthoganalization of MOs is carried out
 sum over diagonal and offdiagdiagonal of C(T)*S*C for irrep
                     6
 -1.998401444325282E-015 -6.709597900860396E-016
 
 sum over diagonal and offdiagdiagonal of C(T)*S*C for irrep
                     7
 -1.221245327087672E-015 -1.171263353562129E-014
 reorthoganalization of MOs is carried out
[...]
   The AB contribution to the correlation energy is:   -0.3622807 a.u.
   The total correlation energy is -0.503874096458 a.u.
   The total correlation energy is -0.503874096458 a.u.
  Current DIIS expansion coefficients : 
 [   1] 1.0948188595 [   2] 0.0004456322 [   3] 0.0170761155 [   4]-0.1049929579
 [   5]-0.0073476494
  Convergence information after    11 iterations: 
  Largest element of residual vector : -0.66973694E-06.
  Largest element of DIIS residual   : -0.26234509E-06.
  W(mnij) AB contribution =  0.0777546839 a.u.
  W(abef) AB contribution =  0.0941538725 a.u.
  W(mbej) AB contribution = -0.2235326983 a.u.
   After  12 iterations, amplitude changes are:
    -------------------------------------------------------------------
                 Spin      RMS          Max.      Max. change for
     Amplitude   Case     Change       Change       i    j    a    b
    -------------------------------------------------------------------
        T1        AA    0.0000000008-0.0000000369    4        18
        T2        AA    0.0000000000 0.0000000216    8    6   67   59
        T2        AB    0.0000000000-0.0000001372    8    8   67   67
    -------------------------------------------------------------------
   The AA contribution to the correlation energy is:   -0.0707967 a.u.
   The AB contribution to the correlation energy is:   -0.3622807 a.u.
   The total correlation energy is -0.503874113588 a.u.
   The total correlation energy is -0.503874113588 a.u.
  Current DIIS expansion coefficients : 
 [   1]-0.1763436869 [   2] 1.1970898148 [   3] 0.0027102128 [   4]-0.0017301578
 [   5]-0.0217261829
  Convergence information after    12 iterations: 
  Largest element of residual vector : -0.13724091E-06.
  Largest element of DIIS residual   :  0.53951761E-07.
  W(mnij) AB contribution =  0.0777547332 a.u.
  W(abef) AB contribution =  0.0941539282 a.u.
  W(mbej) AB contribution = -0.2235328873 a.u.
   After  13 iterations, amplitude changes are:
    -------------------------------------------------------------------
                 Spin      RMS          Max.      Max. change for
     Amplitude   Case     Change       Change       i    j    a    b
    -------------------------------------------------------------------
        T1        AA    0.0000000003-0.0000000398   12        46
        T2        AA    0.0000000000 0.0000000060    6    4   59   46
        T2        AB    0.0000000000 0.0000000241    4    4   59   59
    -------------------------------------------------------------------
   The AA contribution to the correlation energy is:   -0.0707967 a.u.
   The AB contribution to the correlation energy is:   -0.3622807 a.u.
   The total correlation energy is -0.503874108912 a.u.
   The total correlation energy is -0.503874108912 a.u.
  Current DIIS expansion coefficients : 
 [   1]-0.0309243302 [   2]-0.0490453315 [   3] 1.0759014306 [   4] 0.0012843885
 [   5] 0.0027838426
  Convergence information after    13 iterations: 
  Largest element of residual vector : -0.39825061E-07.
  Largest element of DIIS residual   : -0.36844567E-07.
  W(mnij) AB contribution =  0.0777547337 a.u.
  W(abef) AB contribution =  0.0941539305 a.u.
  W(mbej) AB contribution = -0.2235328955 a.u.
   After  14 iterations, amplitude changes are:
    -------------------------------------------------------------------
                 Spin      RMS          Max.      Max. change for
     Amplitude   Case     Change       Change       i    j    a    b
    -------------------------------------------------------------------
        T1        AA    0.0000000001-0.0000000092   12        46
        T2        AA    0.0000000000 0.0000000016    6    4   28   16
        T2        AB    0.0000000000 0.0000000131    4    4   67   67
    -------------------------------------------------------------------
   The AA contribution to the correlation energy is:   -0.0707967 a.u.
   The AB contribution to the correlation energy is:   -0.3622807 a.u.
   The total correlation energy is -0.503874109058 a.u.
   The total correlation energy is -0.503874109058 a.u.
  Current DIIS expansion coefficients : 
 [   1] 0.0276259045 [   2]-0.1055670501 [   3]-0.3223940051 [   4] 1.4030538992
 [   5]-0.0027187485
  Convergence information after    14 iterations: 
  Largest element of residual vector :  0.13091142E-07.
  Largest element of DIIS residual   :  0.65824891E-08.
  W(mnij) AB contribution =  0.0777547317 a.u.
  W(abef) AB contribution =  0.0941539281 a.u.
  W(mbej) AB contribution = -0.2235328871 a.u.
   After  15 iterations, amplitude changes are:
    -------------------------------------------------------------------
                 Spin      RMS          Max.      Max. change for
     Amplitude   Case     Change       Change       i    j    a    b
    -------------------------------------------------------------------
        T1        AA    0.0000000000-0.0000000033   12        46
        T2        AA    0.0000000000 0.0000000011    8    6   67   59
        T2        AB    0.0000000000 0.0000000034    4    4   67   67
    -------------------------------------------------------------------
   The AA contribution to the correlation energy is:   -0.0707967 a.u.
   The AB contribution to the correlation energy is:   -0.3622807 a.u.
   The total correlation energy is -0.503874107078 a.u.
   The total correlation energy is -0.503874107078 a.u.
  Current DIIS expansion coefficients : 
 [   1]-0.0053719303 [   2] 0.0544083577 [   3] 0.0061192032 [   4]-0.4577238582
 [   5] 1.4025682276
  Convergence information after    15 iterations: 
  Largest element of residual vector :  0.33966160E-08.
  Largest element of DIIS residual   : -0.14972193E-08.
   Largest T1 amplitudes for spin case AA:
   i       a                 i       a                 i       a    
-----------------------------------------------------------------------------
[  8      36    ] 0.03289 [  6      29    ] 0.03289 [ 12      46    ] 0.02841
[ 12      47    ]-0.01077 [ 12      49    ] 0.01024 [  6      28    ]-0.00974
[  8      35    ]-0.00974 [  3      19    ] 0.00794 [  8      37    ] 0.00767
[  6      30    ] 0.00767 [  1      20    ]-0.00726 [ 10      51    ]-0.00657
[ 15      76    ]-0.00657 [ 13      62    ]-0.00625 [ 14      70    ]-0.00625
-----------------------------------------------------------------------------
   Norm of T1AA vector (      139 symmetry allowed elements):  0.0676926714.
-----------------------------------------------------------------------------
   Largest T2 amplitudes for spin case AB:
       _       _                 _       _                 _       _
   i   j   a   b             i   j   a   b             i   j   a   b
-----------------------------------------------------------------------------
[  6   6  59  59]-0.13187 [  8   8  67  67]-0.13187 [  8   6  67  59]-0.07371
[  6   8  59  67]-0.07371 [ 12  12  67  67]-0.03808 [ 12  12  59  59]-0.03808
[  4   4  67  67]-0.03694 [  4   4  59  59]-0.03694 [  6   6  60  59]-0.03425
[  6   6  59  60]-0.03425 [  8   8  68  67]-0.03425 [  8   8  67  68]-0.03425
[  8   6  59  67]-0.03316 [  6   8  67  59]-0.03316 [  4   4  46  46]-0.03275
-----------------------------------------------------------------------------
   Norm of T2AB vector (   113455 symmetry allowed elements):  0.4235988244.
-----------------------------------------------------------------------------
  W(mnij) AB contribution =  0.0777547294 a.u.
  W(abef) AB contribution =  0.0941539254 a.u.
  W(mbej) AB contribution = -0.2235328784 a.u.
   After  16 iterations, amplitude changes are:
    -------------------------------------------------------------------
                 Spin      RMS          Max.      Max. change for
     Amplitude   Case     Change       Change       i    j    a    b
    -------------------------------------------------------------------
        T1        AA    0.0000000000 0.0000000006    6        28
        T2        AA    0.0000000000 0.0000000004    8    6   67   59
        T2        AB    0.0000000000-0.0000000011    8    8   67   67
    -------------------------------------------------------------------
   The AA contribution to the correlation energy is:   -0.0707967 a.u.
   The AB contribution to the correlation energy is:   -0.3622807 a.u.
   The total correlation energy is -0.503874106792 a.u.
   The total correlation energy is -0.503874106792 a.u.
  Current DIIS expansion coefficients : 
 [   1] 1.0525710397 [   2]-0.0065551538 [   3]-0.0028483074 [   4] 0.0297987651
 [   5]-0.0729663436
  Convergence information after    16 iterations: 
  Largest element of residual vector : -0.10763039E-08.
  Largest element of DIIS residual   :  0.87847235E-09.
  W(mnij) AB contribution =  0.0777547298 a.u.
  W(abef) AB contribution =  0.0941539259 a.u.
  W(mbej) AB contribution = -0.2235328800 a.u.
   After  17 iterations, amplitude changes are:
    -------------------------------------------------------------------
                 Spin      RMS          Max.      Max. change for
     Amplitude   Case     Change       Change       i    j    a    b
    -------------------------------------------------------------------
        T1        AA    0.0000000000 0.0000000001    3        18
        T2        AA    0.0000000000 0.0000000004    8    6   67   59
        T2        AB    0.0000000000 0.0000000005    6    6   67   67
    -------------------------------------------------------------------
   The AA contribution to the correlation energy is:   -0.0707967 a.u.
   The AB contribution to the correlation energy is:   -0.3622807 a.u.
   The total correlation energy is -0.503874106690 a.u.
   The total correlation energy is -0.503874106690 a.u.
  Current DIIS expansion coefficients : 
 [   1]-0.1623664527 [   2] 1.2573637151 [   3] 0.0050726290 [   4] 0.0074238479
 [   5]-0.1074937394
  Convergence information after    17 iterations: 
  Largest element of residual vector :  0.47199988E-09.
  Largest element of DIIS residual   : -0.30940817E-09.
  Amplitude equations converged in    17iterations.
   The AA contribution to the correlation energy is:   -0.0707967 a.u.
   The AB contribution to the correlation energy is:   -0.3622807 a.u.
   The total correlation energy is -0.503874106661 a.u.
   The total correlation energy is -0.503874106661 a.u.
   The CC iterations have converged.

   Largest T1 amplitudes for spin case AA:
   i       a                 i       a                 i       a    
-----------------------------------------------------------------------------
[  6      29    ] 0.03289 [  8      36    ] 0.03289 [ 12      46    ] 0.02841
[ 12      47    ]-0.01077 [ 12      49    ] 0.01024 [  6      28    ]-0.00974
[  8      35    ]-0.00974 [  3      19    ] 0.00794 [  8      37    ] 0.00767
[  6      30    ] 0.00767 [  1      20    ]-0.00726 [ 15      76    ]-0.00657
[ 10      51    ]-0.00657 [ 14      70    ]-0.00625 [ 13      62    ]-0.00625
-----------------------------------------------------------------------------
   Norm of T1AA vector (      139 symmetry allowed elements):  0.0676926701.
-----------------------------------------------------------------------------
   Largest T2 amplitudes for spin case AB:
       _       _                 _       _                 _       _
   i   j   a   b             i   j   a   b             i   j   a   b
-----------------------------------------------------------------------------
[  6   6  59  59]-0.13187 [  8   8  67  67]-0.13187 [  8   6  67  59]-0.07371
[  6   8  59  67]-0.07371 [ 12  12  67  67]-0.03808 [ 12  12  59  59]-0.03808
[  4   4  67  67]-0.03694 [  4   4  59  59]-0.03694 [  8   8  68  67]-0.03425
[  8   8  67  68]-0.03425 [  6   6  60  59]-0.03425 [  6   6  59  60]-0.03425
[  8   6  59  67]-0.03316 [  6   8  67  59]-0.03316 [  4   4  46  46]-0.03275
-----------------------------------------------------------------------------
   Norm of T2AB vector (   113455 symmetry allowed elements):  0.4235988258.
-----------------------------------------------------------------------------
       Summary of iterative solution of CC equations 
      -----------------------------------------------------------
                       Correlation           Total
       Iteration         Energy              Energy
      -----------------------------------------------------------
            0        -0.510507137728   -4468.917626307206  DIIS 
            1        -0.481244491213   -4468.888363660691  DIIS 
            2        -0.503765476392   -4468.910884645869  DIIS 
            3        -0.501685352630   -4468.908804522108  DIIS 
            4        -0.503721107131   -4468.910840276609  DIIS 
            5        -0.503913999745   -4468.911033169223  DIIS 
            6        -0.503868532830   -4468.910987702307  DIIS 
            7        -0.503876336457   -4468.910995505935  DIIS 
            8        -0.503871626460   -4468.910990795937  DIIS 
            9        -0.503874051391   -4468.910993220868  DIIS 
           10        -0.503873886621   -4468.910993056098  DIIS 
           11        -0.503874096458   -4468.910993265935  DIIS 
           12        -0.503874113588   -4468.910993283065  DIIS 
           13        -0.503874108912   -4468.910993278389  DIIS 
           14        -0.503874109058   -4468.910993278536  DIIS 
           15        -0.503874107078   -4468.910993276556  DIIS 
           16        -0.503874106792   -4468.910993276269  DIIS 
           17        -0.503874106661   -4468.910993276138  DIIS 
      -----------------------------------------------------------
      A miracle has come to pass. The CC iterations have converged.
 @DIMT3-I, Dimensions of T3 amplitudes : 
               # abc          # ijk       Symmetry    Spin 
                     5040             48     1          1
                     4990             56     2          1
                     4990             56     3          1
                     4880             59     4          1
                     5010             54     5          1
                     4960             62     6          1
                     4960             62     7          1
                     4881             58     8          1
                    15864            200     1          2
                    15404            196     2          2
                    15404            196     3          2
                    14888            191     4          2
                    15836            204     5          2
                    15376            200     6          2
                    15376            200     7          2
                    14891            188     8          2
                    15864            200     1          3
                    15404            196     2          3
                    15404            196     3          3
                    14888            191     4          3
                    15836            204     5          3
                    15376            200     6          3
                    15376            200     7          3
                    14891            188     8          3
                     5040             48     1          4
                     4990             56     2          4
                     4990             56     3          4
                     4880             59     4          4
                     5010             54     5          4
                     4960             62     6          4
                     4960             62     7          4
                     4881             58     8          4
 @DIMT3-I, Dimensions of T3 amplitudes : 
               # abc          # ijk       Symmetry    Spin 
                     5040             48     1          1
                     4990             56     2          1
                     4990             56     3          1
                     4880             59     4          1
                     5010             54     5          1
                     4960             62     6          1
                     4960             62     7          1
                     4881             58     8          1
                    15864            200     1          2
                    15404            196     2          2
                    15404            196     3          2
                    14888            191     4          2
                    15836            204     5          2
                    15376            200     6          2
                    15376            200     7          2
                    14891            188     8          2
                    15864            200     1          3
                    15404            196     2          3
                    15404            196     3          3
                    14888            191     4          3
                    15836            204     5          3
                    15376            200     6          3
                    15376            200     7          3
                    14891            188     8          3
                     5040             48     1          4
                     4990             56     2          4
                     4990             56     3          4
                     4880             59     4          4
                     5010             54     5          4
                     4960             62     6          4
                     4960             62     7          4
                     4881             58     8          4
 @TRPS-I, Welcome to TRPS. Watch your RUs ! 
 @TRPS-I, Method is CCSD(T) 
 @TRPS-I, Calculation type is energy 
 @TRPS-I, Reference function information : 
          Reference function is Hartree-Fock 
          Reference function is RHF Hartree-Fock 
 @TRPS-I, INT1 is true 
 @TRPS-I, INT2 is false 
 @TRPS-I, Lengths of ijka integrals. #1      12512
                                     #2      12512
                                     #3      27109
                                     #4      27109
                                    Max      27109
 @INITRP-I, Initializing W intermediate lists. 
 @SETOOOV-I, Some OOOV lists are being transposed. 
 @TRPS-I, Available memory in integer words   1499959040
          Number of pre-allocated words for TRPS2        37346
          Number of free words for TRPS2   1499921694
 @TRPS2-I, Spin case AAB 
 @TRPS2-I, Number of free integer words 1499921694
           Number of free double  words 1499921694
           Ratio                                 1
 @TRPS2-I, E4TBAA      -0.013599816847
  @TRPS2-I, E4TAAA  -9.273850667823379E-004
 @TRPS2-I, E5ST A    0.000422512650034
 @TRPS2-I, E5ST B    0.000332671543860
 @SETOOOV-I, Some OOOV lists are being transposed. 
 @CCENRG-I, CCSD/QCISD energy will now be evaluated. 
 @CCENRG-I, Correlation energies. ECCAA       -0.070796685066
                                  ECCBB        0.000000000000
                                  ECCAB       -0.362280736528
                                  Total       -0.503874106661
 @CCENRG-I, Reference   energy   -4468.407119169477
            CCSD/QCISD energy    -4468.910993276138
          E4T (T(CCSD)) = -0.029054403827
          E5ST          =  0.001510368388
          E4ST          =  0.000000000000
          In other words  
          <T3[2](Dagger) D3  T3[2]> = -0.029054403827
          <T1   (Dagger) Q1 WT3[2]> =  0.001510368388
          <T2   (Dagger) Q2 FT3[2]> =  0.000000000000
        E(CCSD)           =   -4468.910993276138
        E(CCSD + T(CCSD)) =   -4468.940047679966
        E(CCSD(T))        =   -4468.938537311577
  @CHECKOUT-I, Total execution time (CPU/WALL):        5.42/       5.47 seconds.
--executable xvcc finished with status     0 in        5.51 seconds (walltime).
  The final electronic energy is     -4468.938537311577420 a.u. 
  This computation required                           18.27 seconds (walltime).
