 --invoking executable--
/project1/nike/cfour_v2.00beta_May2019xnmol_noLABBASIS/bin/xjoda


   *************************************************************************
         <<<     CCCCCC     CCCCCC   |||     CCCCCC     CCCCCC   >>>
       <<<      CCC        CCC       |||    CCC        CCC         >>>
      <<<      CCC        CCC        |||   CCC        CCC            >>>
    <<<        CCC        CCC        |||   CCC        CCC              >>>
      <<<      CCC        CCC        |||   CCC        CCC            >>>
       <<<      CCC        CCC       |||    CCC        CCC         >>>
         <<<     CCCCCC     CCCCCC   |||     CCCCCC     CCCCCC   >>>
   *************************************************************************

     ****************************************************************
     * CFOUR Coupled-Cluster techniques for Computational Chemistry *
     ****************************************************************
 

   Department of Chemistry                Institut fuer Physikalische Chemie
   University of Texas at Austin          Universitaet Mainz
   Austin, TX  78712, USA                 D-55099 Mainz, Germany
 
                       Version 2.00beta
 
                     req286                                            
                     Sun Mar  8 18:58:40 EDT 2020                      
                     integer*8 version is running
 
********************************************************************************
*                          Input from ZMAT file                                *
********************************************************************************
TITLE                                                                           
C  0.0000 0.0000  0.0000                                                        
C  0.0000 0.0000  1.3290                                                        
H  0.9235 0.0000 -0.5637                                                        
H -0.9235 0.0000 -0.5637                                                        
H  0.9235 0.0000  1.8927                                                        
H -0.9235 0.0000  1.8927                                                        
                                                                                
*ACES2(CALC=CCSD(T)                                                             
#UNITS=BOHR                                                                     
#GEOM=2.6729874*10/5.29177210903_Pentasilane_def2-QZVP_pbe                      
COORD=CARTESIAN                                                                 
#COORD=INTERNAL                                                                 
PRINT=4                                                                         
JODA_PRINT=4                                                                    
INPUT_MRCC=OFF                                                                  
#CC_PROG=MRCC                                                                   
#FROZEN_CORE=ON                                                                 
DROPMO=1>2                                                                      
CONTRACTION=GENERAL                                                             
#CONTRACTION=SEGMENTED                                                          
RELATIVISTIC=OFF                                                                
#EXCITE=EOMEE                                                                   
#ESTATE_CONV=5                                                                  
#ESTATE_SYM=2/2/2/2/2/2/2/2                                                     
XFORM_TOL=18                                                                    
SAVE_INTS=ON                                                                    
SCF_EXPORDER=6                                                                  
SCF_EXPSTART=5                                                                  
#SCF_DAMPING=1000                                                               
SCF_EXTRAPOLATION=ON                                                            
SCF_CONV=12                                                                     
SCF_MAXCYC=99999                                                                
CC_CONV=9                                                                       
CC_MAXCYC=999                                                                   
T3_EXTRAPOL=ON                                                                  
REFERENCE=RHF                                                                   
#SYMMETRY=OFF                                                                   
#HFSTABILITY=FOLLOW                                                             
CHARGE=+1                                                                       
MULT=2                                                                          
ABCDTYPE=STANDARD                                                               
#OCCUPATION=3-2-2-0-1-0-0-0/3-1-1-0-1-0-0-0                                     
MEM=4                                                                           
MEM_UNIT=GB                                                                     
BASIS=SPECIAL)                                                                  
                                                                                
C:def2-TZVPP                                                                    
C:def2-TZVPP                                                                    
H:def2-TZVPP                                                                    
H:def2-TZVPP                                                                    
H:def2-TZVPP                                                                    
H:def2-TZVPP                                                                    
                                                                                
********************************************************************************
  @GTFLGS-W, Keyword #UNITS not known and is ignored.
  @GTFLGS-W, Keyword #GEOM not known and is ignored.
  @GTFLGS-W, Keyword #COORD not known and is ignored.
  @GTFLGS-W, Keyword #CC_PROG not known and is ignored.
  @GTFLGS-W, Keyword #FROZEN_CORE not known and is ignored.
  @GTFLGS-W, Keyword #CONTRACTION not known and is ignored.
  @GTFLGS-W, Keyword #EXCITE not known and is ignored.
  @GTFLGS-W, Keyword #ESTATE_CONV not known and is ignored.
  @GTFLGS-W, Keyword #ESTATE_SYM not known and is ignored.
  @GTFLGS-W, Keyword #SCF_DAMPING not known and is ignored.
  @GTFLGS-W, Keyword #SYMMETRY not known and is ignored.
  @GTFLGS-W, Keyword #HFSTABILITY not known and is ignored.
  @GTFLGS-W, Keyword #OCCUPATION not known and is ignored.
  @GTFLGS-I, Calculation type set to UHF.
    -------------------------------------------------------------------
                    CFOUR Control Parameters 
    -------------------------------------------------------------------
        External           Internal           Value            Units
          Name               Name
    -------------------------------------------------------------------
       ABCDTYPE             IABCDT         STANDARD     [  0]   ***   
       ANHARMONIC           IANHAR         OFF          [  0]   ***   
       ANH_ALGORIT          IANALG         STANDARD     [  0]   ***   
       ANH_DERIVAT          IANDER         SECOND       [  1]   ***   
       ANH_STEPSIZ          ICUBST             50000          x 10-6  
       ANH_SYMMETR          IANHSM         ABELIAN      [  0]   ***   
       AO_LADDERS           IAOLAD         SINGLEPASS   [  1]   ***   
       BASIS                IBASIS         SPECIAL      [  0]   ***   
       BREIT                IBREIT         OFF          [  0]   ***   
       BRUCK_CONV           IBRTOL          10D-  4             ***   
       BRUECKNER            IBRKNR             OFF      [  0]   ***   
       BUFFERSIZE           IBUFFS            600               ***   
       CACHE_RECS           ICHREC             10               ***   
       CALCLEVEL            ICLLVL           CCSD(T)    [ 22]   ***   
       CCORBOPT             ICCORB             OFF      [  0] x 0.01  
       CC_CONV              ICCCNV          10D-  9             ***   
       CC_EXPORDER          ICCEOR              5               ***   
       CC_EXTRAPOL          ICCEXT             DIIS     [  1]   ***   
       CC_MAXCYC            ICCCYC            999              cycles 
       CC_PROGRAM           ICCPRO         VCC          [  0]   ***   
       CHARGE               ICHRGE              1               ***   
       CHOLESKY             ICHOLE         OFF          [  0]   ***   
       CIS_CONV             ICISTL              5               ***   
       COMM_SIZE            IPSIZE            ***               ***   
       CONSTANT             ICONST         OLD          [  1]   ***   
       CONTINUUM            ICONTU         NONE         [  0]   ***   
       CONTRACTION          ICNTYP          GENERAL     [  1]   ***   
       COORDINATES          ICOORD         CARTESIAN    [  1]   ***   
       CPHF_CONVER          ICPHFT          10D- 16             ***   
       CPHF_MAXCYC          ICPHFC             64              cycles 
       CUBIC                ICUBIC         OFF          [  0]   ***   
       CURVILINEAR          ICURVY            OFF       [  0]   ***   
       DBOC                 IDBOC          OFF          [  0]   ***   
       DCT                  IDCT           OFF          [  0]   ***   
       DERIV_LEV            IDRLVL            ZERO      [  0]   ***   
       DIAG_MRCC            IEOMST          10D-  0             ***   
       DIFF_TYPE            IDIFTY         RELAXED      [  0]   ***   
       DIRECT               IDIRCT         OFF          [  0]   ***   
       DROPMO               IDRPMO   1,  2,
       ECP                  IECP           OFF          [  0]   ***   
       EIGENVECTOR          IVEC                1               ***   
       EL_ANHARM            IELANH         OFF          [  0]   ***   
       EOMFOLLOW            IEOMSR         ENERGY       [  0]   ***   
       EOM_MRCC             IMRCCE         NEW          [  1]   ***   
       EOM_NONIT            EOMNON         OFF          [  0]   ***   
       EOM_NSING            IEOMSI          10D-  0             ***   
       EOM_NSTATES          IMRCCD         DAVIDSON     [  0]   ***   
       EOM_NTRIP            IEOMTR          10D-  0             ***   
       EOM_ORDER            IEXORD         ENERGY       [  0]   ***   
       ESTATE_CONV          IEXTOL          10D-  5             ***   
       ESTATE_DIAG          IEXDIG         ITERATIVE    [  0]   ***   
       ESTATE_LOCK          IESLOC         ON           [  1]   ***   
       ESTATE_MAXC          IEXMXC             20               ***   
       ESTATE_PROP          IEXPRP         OFF          [  0]   ***   
       EVAL_HESS            IRECAL              0            # of cyc.
       EXCITATION           IEXCIT              0               ***   
       EXCITE               IEXCIT         NONE         [  0]   ***   
       FCGRADNEW            IFCGNW         OFF          [  0]   ***   
       FC_FIELD             IFINFC              0             x 10-6  
       FD_CALTYPE           IFDCAL         GRADONLY     [  0]   ***   
       FD_PROJECT           IFDPRJ         OFF          [  1]   ***   
       FD_STEPSIZE          IDISFD              0            10-4 bohr
       FD_USEGROUP          IFDGRP         FULL         [  0]   ***   
       FILE_RECSIZ          IFLREC              4096           words  
       FINITE_PERT          IFIPER              0             x 10-6  
       FIXGEOM              IFIXGM         OFF          [  0]   ***   
       FOCK                 IFOCK          AO           [  1]   ***   
       FREQ_ALGORI          IVIALG         STANDARD     [  0]   ***   
       FROZEN_CORE          IFROCO         OFF          [  0]   ***   
       FROZEN_VIRT          IFROVI         OFF          [  0]   ***   
       GAMMA_ABCD           IGABCD         STORE        [  0]   ***   
       GAMMA_ABCI           IGABCI         STORE        [  0]   ***   
       GENBAS_1             IGNBS1              0               ***   
       GENBAS_2             IGNBS2              0               ***   
       GENBAS_3             IGNBS3              0               ***   
       GENBAS_4             IGNBS4              0               ***   
       GEO_CONV             ICONTL              5              H/bohr 
       GEO_MAXCYC           IOPTCY             50               ***   
       GEO_MAXSTEP          IMXSTP            300            millibohr
       GEO_METHOD           INR            SINGLE_POINT [  5]   ***   
       GIAO                 IGIAO          OFF          [  1]   ***   
       GIMIC                IGIMIC         OFF          [  0]   ***   
       GRID                 IGRID          OFF          [  0]   ***   
       GRID_ALGO            IGALGO         SERIAL       [  0]   ***   
       GUESS                IGUESS            MOREAD    [  0]   ***   
       HBAR                 IHBAR              OFF      [  0]   ***   
       HESS_TYPE            IHESTP         SCF          [  0]   ***   
       HF2_FILE             IHF2Fl         USE          [  1]   ***   
       HFSTABILITY          ISTABL         OFF          [  0]   ***   
       INCORE               INCORE             OFF      [  0]   ***   
       INPUT_MRCC           IMRCC          OFF          [  0]   ***   
       INTEGRALS            INTTYP             VMOL     [  1]   ***   
       JODA_PRINT           IJPRNT              4               ***   
       LINDEP_TOL           ILINDP              8               ***   
       LINEQ_CONV           IZTACN          10D-  7           cycles  
       LINEQ_EXPOR          ILMAXD              5               ***   
       LINEQ_MAXCY          ILMAXC             50               ***   
       LINEQ_TYPE           ILTYPE         DIIS         [  1]   ***   
       LOCK_ORBOCC          ILOCOC             OFF      [  0]   ***   
       MEMORY_SIZE          IMEMSZ         500000000           words  
       MEM_UNIT             IMEMU          GB           [  3]   ***   
       MRCC                 IMRCCC         OFF          [  0]   ***   
       MULTIPLICTY          IMULTP              2               ***   
       NEGEVAL              IDIE             ABORT      [  0]   ***   
       NEWNORM              INEWNO         OFF          [  0]   ***   
       NON-HF               INONHF             OFF      [  0]   ***   
       NTOP_TAMP            ITOPT2             15               ***   
       NUC_MODEL            INUCMO         POINT        [  0]   ***   
       OCCUPATION           IOCCU   ESTIMATED BY SCF 
       OPEN-SHELL           IOPEN          SPIN-ORBITAL [  0]   ***   
       ORBITALS             IORBTP           STANDARD   [  0]   ***   
       PARALLEL             IPARAL         ON           [  1]   ***   
       PARA_INT             IPINTS         ON           [  1]   ***   
       PARA_PRINT           IPPRIN              0               ***   
       PERT_ORB             IPTORB         STANDARD     [  0]   ***   
       POINTS               IGRDFD              0               ***   
       PRINT                IPRNT               4               ***   
       PROPS                IPROPS             OFF      [  0]   ***   
       PROP_INTEGR          IINTYP         INTERNAL     [  0]   ***   
       PSI                  IPSI           OFF          [  0]   ***   
       QUARTIC              IQUART         OFF          [  0]   ***   
       RAMAN_INT            IRAMIN         OFF          [  0]   ***   
       RAMAN_ORB            IRAMRE         UNRELAXED    [  0]   ***   
       RDO                  IRDOFM             OFF      [  0]   ***   
       REFERENCE            IREFNC             UHF      [  1]   ***   
       RELATIVIST           IRELAT         OFF          [  0]   ***   
       RELAX_DENS           IRDENS             OFF      [  0]   ***   
       RESET_FLAGS          IRESET             OFF      [  0]   ***   
       RESTART_CC           ICCRES         OFF          [  0]   ***   
       ROT_EVEC             ROTVEC              0               ***   
       SAVE_INTS            ISVINT              ON      [  1]   ***   
       SCALE_ON             ISTCRT              0               ***   
       SCF_CONV             ISCFCV          10D- 12             ***   
       SCF_DAMPING          IDAMP               0             x 10-3  
       SCF_EXPORDE          IRPPOR              6               ***   
       SCF_EXPSTAR          IRPPLS              5               ***   
       SCF_EXTRAPO          IRPP                ON      [  1]   ***   
       SCF_MAXCYC           ISCFCY            ***              cycles 
       SCF_NOSTOP           ISCFST         OFF          [  0]   ***   
       SCF_PRINT            ISCFPR              0               ***   
       SD_FIELD             IFINSD              0             x 10-6  
       SEQUENCE             ISEQUE         OFF          [  0]   ***   
       SOPERT               IPERSO         OFF          [  0]   ***   
       SPHERICAL            IDFGHI             ON       [  1]   ***   
       SPINORBIT            ISOCAL         OFF          [  0]   ***   
       SPINROTATIO          ISRCON         OFF          [  0]   ***   
       SPIN_FLIP            ISPFLP         OFF          [  0]   ***   
       SPIN_ORBIT           ISPORB         OFF          [  0]   ***   
       SPIN_SCAL            ISCSMP         OFF          [  0]   ***   
       SUBGROUP             ISUBGP         DEFAULT      [  0]   ***   
       SUBGRPAXIS           ISBXYZ         X            [  0]   ***   
       SYMMETRY             ISYM             ON         [  0]   ***   
       SYM_CHECK            ISYMCK         OVERRIDE     [  1]   ***   
       T3_EXTRAPOL          IT3EXT         ON           [  1]   ***   
       TAMP_SUM             IEVERY              5               ***   
       TESTSUITE            ITESTS         OFF          [  0]   ***   
       THERMOCH             ITHERM         OFF          [  0]   ***   
       TOL_CHOLESK          ITOLCH          10D-  4             ***   
       TRANGRAD             IRESRM         OFF          [  0]   ***   
       TRANS_INV            ITRAIN         USE          [  0]   ***   
       TREAT_PERT           ITREAT         SIMULTANEOUS [  0]   ***   
       UIJ_THRESHO          IUIJTH              1               ***   
       UNITS                IUNITS         ANGSTROM     [  0]   ***   
       UNOS                 IUNOS          OFF          [  0]   ***   
       UPDATE_HESS          IHUPDT         ON           [  1]   ***   
       VIBPHASE             ISETPH         STANDARD     [  0]   ***   
       VIBRATION            IVIB              NO        [  0]   ***   
       VIB_ALGORIT          IGEALG         STANDARD     [  0]   ***   
       VNATORB              IVNORB         OFF          [  0]   ***   
       VTRAN                IVTRAN         FULL/PARTIAL [  0]   ***   
       XFIELD               IXEFLD              0             x 10-6  
       XFORM_TOL            IXFTOL          10D- 18             ***   
       YFIELD               IYEFLD              0             x 10-6  
       ZFIELD               IZEFLD              0             x 10-6  
    -------------------------------------------------------------------
  @GETXYZ-I,     6 atoms read from ZMAT.
  1  C          6    12.00000
  2  C          6    12.00000
  3  H          1     1.00783
  4  H          1     1.00783
  5  H          1     1.00783
  6  H          1     1.00783
  1  C          6    12.00000
  2  C          6    12.00000
  3  H          1     1.00783
  4  H          1     1.00783
  5  H          1     1.00783
  6  H          1     1.00783
   12.0000000000
   12.0000000000
    1.0078250350
    1.0078250350
    1.0078250350
    1.0078250350
 After translation to center of mass coordinates 
        0.000000000000    0.000000000000   -1.255723272984
        0.000000000000    0.000000000000    1.255723272984
        1.745162441837    0.000000000000   -2.320962112684
       -1.745162441837    0.000000000000   -2.320962112684
        1.745162441837    0.000000000000    2.320962112684
       -1.745162441837    0.000000000000    2.320962112684
  Inertia tensor (amu*bohr**2)
   59.56025    0.00000    0.00000
    0.00000   71.83795    0.00000
    0.00000    0.00000   12.27770
    Inertia tensor:
       59.560252666249    0.000000000000    0.000000000000
        0.000000000000   71.837947914205    0.000000000000
        0.000000000000    0.000000000000   12.277695247956
    Principal axis orientation for molecular system: 
       -1.255723272984    0.000000000000    0.000000000000
        1.255723272984    0.000000000000    0.000000000000
       -2.320962112684    1.745162441837    0.000000000000
       -2.320962112684   -1.745162441837    0.000000000000
        2.320962112684    1.745162441837    0.000000000000
        2.320962112684   -1.745162441837    0.000000000000
    Diagonalized inertia tensor:
       12.277695247956    0.000000000000    0.000000000000
        0.000000000000   59.560252666249    0.000000000000
        0.000000000000    0.000000000000   71.837947914205
    Eigenvectors of inertia tensor: 
        0.000000000000    1.000000000000    0.000000000000
        0.000000000000    0.000000000000    1.000000000000
        1.000000000000    0.000000000000    0.000000000000
 factor:   60.1997200000000     
   Rotational constants (in cm-1): 
          0.8379933134             1.0107364779             4.9031775740
   Rotational constants (in MHz): 
      25122.4110405462         30301.1215537151        146993.5862848925
  @SYMMETRY-I, Handedness of inertial frame: 1.00000
  @SYMMETRY-I, The symmetry group is 1-fold degenerate.
  @SYMMETRY-I, The molecule belongs to an Abelian group.
   Principal axis orientation for molecule:
       -1.255723272984    0.000000000000    0.000000000000
        1.255723272984    0.000000000000    0.000000000000
       -2.320962112684    1.745162441837    0.000000000000
       -2.320962112684   -1.745162441837    0.000000000000
        2.320962112684    1.745162441837    0.000000000000
        2.320962112684   -1.745162441837    0.000000000000
   Reflection in plane  3 is a valid symmetry operation.
   Rotation about  3 is a valid symmetry operation 
   Reflection in plane  2 is a valid symmetry operation.
   Rotation about  2 is a valid symmetry operation 
   Reflection in plane  1 is a valid symmetry operation.
   Rotation about  1 is a valid symmetry operation 
   The molecule possesses an inversion center. 
  Symmetry bits:    7   7   1
********************************************************************************
   The full molecular point group is D2h .
   The largest Abelian subgroup of the full molecular point group is D2h .
   The computational point group is D2h .
********************************************************************************
 ----------------------------------------------------------------
 Z-matrix   Atomic            Coordinates (in bohr)
  Symbol    Number           X              Y              Z
 ----------------------------------------------------------------
     C         6        -1.25572327     0.00000000     0.00000000
     C         6         1.25572327     0.00000000     0.00000000
     H         1        -2.32096211     1.74516244     0.00000000
     H         1        -2.32096211    -1.74516244     0.00000000
     H         1         2.32096211     1.74516244     0.00000000
     H         1         2.32096211    -1.74516244     0.00000000
 ----------------------------------------------------------------
   Interatomic distance matrix (Angstroms) 
 
                 C             C             H             H             H    
                [ 1]        [ 2]        [ 3]        [ 4]        [ 5]
  C    [ 1]     0.00000
  C    [ 2]     1.32900     0.00000
  H    [ 3]     1.08195     2.10598     0.00000
  H    [ 4]     1.08195     2.10598     1.84700     0.00000
  H    [ 5]     2.10598     1.08195     2.45640     3.07332     0.00000
  H    [ 6]     2.10598     1.08195     3.07332     2.45640     1.84700
 
                 H    
                [ 6]
  H    [ 6]     0.00000
  Inertia tensor (amu*bohr**2)
   12.27770    0.00000    0.00000
    0.00000   59.56025    0.00000
    0.00000    0.00000   71.83795
   Rotational constants (in cm-1): 
          4.9031775740             1.0107364779             0.8379933134
   Rotational constants (in MHz): 
     146993.5862848925         30301.1215537151         25122.4110405462
  @GTFLGS-W, Keyword #UNITS not known and is ignored.
  @GTFLGS-W, Keyword #GEOM not known and is ignored.
  @GTFLGS-W, Keyword #COORD not known and is ignored.
  @GTFLGS-W, Keyword #CC_PROG not known and is ignored.
  @GTFLGS-W, Keyword #FROZEN_CORE not known and is ignored.
  @GTFLGS-W, Keyword #CONTRACTION not known and is ignored.
  @GTFLGS-W, Keyword #EXCITE not known and is ignored.
  @GTFLGS-W, Keyword #ESTATE_CONV not known and is ignored.
  @GTFLGS-W, Keyword #ESTATE_SYM not known and is ignored.
  @GTFLGS-W, Keyword #SCF_DAMPING not known and is ignored.
  @GTFLGS-W, Keyword #SYMMETRY not known and is ignored.
  @GTFLGS-W, Keyword #HFSTABILITY not known and is ignored.
  @GTFLGS-W, Keyword #OCCUPATION not known and is ignored.
  @GTFLGS-I, Calculation type set to UHF.
  There are  118 basis functions.
 @GEOPT-W, Archive file not created for single-point calculation.
  @CHECKOUT-I, Total execution time (CPU/WALL):        0.50/       1.39 seconds.
--executable xjoda finished with status     0 in        1.62 seconds (walltime).
 --invoking executable--
/project1/nike/cfour_v2.00beta_May2019xnmol_noLABBASIS/bin/xvmol
Running with 1 threads/proc

********************************************************************************
                   INPUT FROM MOL FILE                                          
********************************************************************************
INTGRL        1    0    1    0    0    0    0    0    0
         *** CFOUR Program System (Release V0.1) *** 
TITLE
    2    3 X  Y   Z   0.10E-08              0    0
   9999.00      3.00
          6.00000000    1    4    1    1    1    1
C #1  -1.255723272983657   0.000000000000000   0.000000000000000
   11    5
   13575.3496820000       2.224581435200000E-004  0.000000000000000E+000
  0.000000000000000E+000  0.000000000000000E+000  0.000000000000000E+000
   2035.23336800000       1.723273825200000E-003  0.000000000000000E+000
  0.000000000000000E+000  0.000000000000000E+000  0.000000000000000E+000
   463.225623590000       8.925571531400001E-003  0.000000000000000E+000
  0.000000000000000E+000  0.000000000000000E+000  0.000000000000000E+000
   131.200195980000       3.572798450200000E-002  0.000000000000000E+000
  0.000000000000000E+000  0.000000000000000E+000  0.000000000000000E+000
   42.8530158910000       0.110762599310000       0.000000000000000E+000
  0.000000000000000E+000  0.000000000000000E+000  0.000000000000000E+000
   15.5841857660000       0.242956276260000       0.000000000000000E+000
  0.000000000000000E+000  0.000000000000000E+000  0.000000000000000E+000
   6.20671385080000       0.000000000000000E+000  0.414402634480000     
  0.000000000000000E+000  0.000000000000000E+000  0.000000000000000E+000
   2.57648965270000       0.000000000000000E+000  0.237449686550000     
  0.000000000000000E+000  0.000000000000000E+000  0.000000000000000E+000
  0.576963394190000       0.000000000000000E+000  0.000000000000000E+000
   1.00000000000000       0.000000000000000E+000  0.000000000000000E+000
  0.229728313580000       0.000000000000000E+000  0.000000000000000E+000
  0.000000000000000E+000   1.00000000000000       0.000000000000000E+000
  9.516444002799999E-002  0.000000000000000E+000  0.000000000000000E+000
  0.000000000000000E+000  0.000000000000000E+000   1.00000000000000     
    6    3
   34.6972322440000       5.333365780500000E-003  0.000000000000000E+000
  0.000000000000000E+000
   7.95826228260000       3.586410909200000E-002  0.000000000000000E+000
  0.000000000000000E+000
   2.37808268830000       0.142158733290000       0.000000000000000E+000
  0.000000000000000E+000
  0.814332081830000       0.342704718450000       0.000000000000000E+000
  0.000000000000000E+000
  0.288875472530000       0.000000000000000E+000  0.464458224330000     
  0.000000000000000E+000
  0.100568236710000       0.000000000000000E+000  0.000000000000000E+000
  0.249557898740000     
    2    2
   1.09700000000000        1.00000000000000       0.000000000000000E+000
  0.318000000000000       0.000000000000000E+000   1.00000000000000     
    1    1
  0.761000000000000        1.00000000000000     
          1.00000000    1    3    1    1    1
H #2  -2.320962112684015   1.745162441836580   0.000000000000000
    5    3
   34.0613410000000       6.025197800000000E-003  0.000000000000000E+000
  0.000000000000000E+000
   5.12357460000000       4.502109400000000E-002  0.000000000000000E+000
  0.000000000000000E+000
   1.16466260000000       0.201897260000000       0.000000000000000E+000
  0.000000000000000E+000
  0.327230410000000       0.000000000000000E+000   1.00000000000000     
  0.000000000000000E+000
  0.103072410000000       0.000000000000000E+000  0.000000000000000E+000
   1.00000000000000     
    2    2
   1.40700000000000        1.00000000000000       0.000000000000000E+000
  0.388000000000000       0.000000000000000E+000   1.00000000000000     
    1    1
   1.05700000000000        1.00000000000000     
FINISH
                                                                                
********************************************************************************

ONE- AND TWO-ELECTRON INTEGRALS OVER SYMMETRY-ADAPTED AOS ARE CALCULATED.


    BASIS FUNCTION NOT NORMALIZED:
    CENTER (AS ORDERED IN MOL FILE): ?
    ANGULAR MOMENTUM TYPE:           S
    OFFSET WITHIN ANGULAR MOMENTUM:  1
    <CHI|CHI>:                       0.1345548646

    BASIS FUNCTION NOT NORMALIZED:
    CENTER (AS ORDERED IN MOL FILE): ?
    ANGULAR MOMENTUM TYPE:           S
    OFFSET WITHIN ANGULAR MOMENTUM:  2
    <CHI|CHI>:                       0.3991162928

    BASIS FUNCTION NOT NORMALIZED:
    CENTER (AS ORDERED IN MOL FILE): ?
    ANGULAR MOMENTUM TYPE:           P
    OFFSET WITHIN ANGULAR MOMENTUM:  1
    <CHI|CHI>:                       0.2216950870

    BASIS FUNCTION NOT NORMALIZED:
    CENTER (AS ORDERED IN MOL FILE): ?
    ANGULAR MOMENTUM TYPE:           P
    OFFSET WITHIN ANGULAR MOMENTUM:  2
    <CHI|CHI>:                       0.2157214421

    BASIS FUNCTION NOT NORMALIZED:
    CENTER (AS ORDERED IN MOL FILE): ?
    ANGULAR MOMENTUM TYPE:           P
    OFFSET WITHIN ANGULAR MOMENTUM:  3
    <CHI|CHI>:                       0.0622791448

    BASIS FUNCTION NOT NORMALIZED:
    CENTER (AS ORDERED IN MOL FILE): ?
    ANGULAR MOMENTUM TYPE:           S
    OFFSET WITHIN ANGULAR MOMENTUM:  1
    <CHI|CHI>:                       0.0560960211
CARTESIAN GAUSSIANS ARE USED.

2 TYPES OF ATOMS
3 SYMMETRY OPERATIONS

REFLECTION IN THE YZ-PLANE
REFLECTION IN THE XZ-PLANE
REFLECTION IN THE XY-PLANE

INTEGRALS LESS THAN 1e-14 ARE NEGLECTED.

ATOMIC TYPE NUMBER 1:
---------------------

    NUCLEAR CHARGE:                       6
    NUMBER OF SYMMETRY INDEPENDENT ATOMS: 1
    HIGHEST ORBITAL TYPE:                 F

    1 GROUPS OF CGTOS OF S TYPE
    1 GROUPS OF CGTOS OF P TYPE
    1 GROUPS OF CGTOS OF D TYPE
    1 GROUPS OF CGTOS OF F TYPE

    NUCLEAR COORDINATES (IN A.U.) ARE:

    C #1  -1.255723272983657   0.000000000000000   0.000000000000000

ATOMIC TYPE NUMBER 2:
---------------------

    NUCLEAR CHARGE:                       1
    NUMBER OF SYMMETRY INDEPENDENT ATOMS: 1
    HIGHEST ORBITAL TYPE:                 D

    1 GROUPS OF CGTOS OF S TYPE
    1 GROUPS OF CGTOS OF P TYPE
    1 GROUPS OF CGTOS OF D TYPE

    NUCLEAR COORDINATES (IN A.U.) ARE:

    H #2  -2.320962112684015   1.745162441836580   0.000000000000000

INTERNUCLEAR DISTANCES (A):

    FOR ATOM C #1 (COORDINATES:  -1.25572   0.00000   0.00000)

    C #1 2 DISTANCE IS   1.32900
    H #2 1 DISTANCE IS   1.08195
    H #2 2 DISTANCE IS   2.10598

    FOR ATOM H #2 (COORDINATES:  -2.32096   1.74516   0.00000)

    H #2 2 DISTANCE IS   2.45640
    H #2 3 DISTANCE IS   1.84700
    H #2 4 DISTANCE IS   3.07332

GROUP MULTIPLICATION TABLE:

    1 2 3 4 5 6 7 8
    2 1 4 3 6 5 8 7
    3 4 1 2 7 8 5 6
    4 3 2 1 8 7 6 5
    5 6 7 8 1 2 3 4
    6 5 8 7 2 1 4 3
    7 8 5 6 3 4 1 2
    8 7 6 5 4 3 2 1

GAUSSIAN BASIS INFORMATION:

ATOM                EXPONENT       COEFFICIENTS

C #1  1  S   
                  1   13575.349682   0.5435906   0.0000000   0.0000000   0.0000000   0.0000000
                  2    2035.233368   1.0145544   0.0000000   0.0000000   0.0000000   0.0000000
                  3     463.225624   1.7315732   0.0000000   0.0000000   0.0000000   0.0000000
                  4     131.200196   2.6910376   0.0000000   0.0000000   0.0000000   0.0000000
                  5      42.853016   3.6044547   0.0000000   0.0000000   0.0000000   0.0000000
                  6      15.584186   3.7025557   0.0000000   0.0000000   0.0000000   0.0000000
                  7       6.206714   0.0000000   1.8383541   0.0000000   0.0000000   0.0000000
                  8       2.576490   0.0000000   0.5447576   0.0000000   0.0000000   0.0000000
                  9       0.576963   0.0000000   0.0000000   0.4718145   0.0000000   0.0000000
                 10       0.229728   0.0000000   0.0000000   0.0000000   0.2364945   0.0000000
                 11       0.095164   0.0000000   0.0000000   0.0000000   0.0000000   0.1221142

C #1  2  S   
                 12   13575.349682   0.5435906   0.0000000   0.0000000   0.0000000   0.0000000
                 13    2035.233368   1.0145544   0.0000000   0.0000000   0.0000000   0.0000000
                 14     463.225624   1.7315732   0.0000000   0.0000000   0.0000000   0.0000000
                 15     131.200196   2.6910376   0.0000000   0.0000000   0.0000000   0.0000000
                 16      42.853016   3.6044547   0.0000000   0.0000000   0.0000000   0.0000000
                 17      15.584186   3.7025557   0.0000000   0.0000000   0.0000000   0.0000000
                 18       6.206714   0.0000000   1.8383541   0.0000000   0.0000000   0.0000000
                 19       2.576490   0.0000000   0.5447576   0.0000000   0.0000000   0.0000000
                 20       0.576963   0.0000000   0.0000000   0.4718145   0.0000000   0.0000000
                 21       0.229728   0.0000000   0.0000000   0.0000000   0.2364945   0.0000000
                 22       0.095164   0.0000000   0.0000000   0.0000000   0.0000000   0.1221142

C #1  1  X   
                 23      34.697232   1.3596651   0.0000000   0.0000000
                 24       7.958262   1.4512589   0.0000000   0.0000000
                 25       2.378083   1.2709231   0.0000000   0.0000000
                 26       0.814332   0.8025721   0.0000000   0.0000000
                 27       0.288875   0.0000000   0.3018759   0.0000000
                 28       0.100568   0.0000000   0.0000000   0.0807265

C #1  2  X   
                 29      34.697232   1.3596651   0.0000000   0.0000000
                 30       7.958262   1.4512589   0.0000000   0.0000000
                 31       2.378083   1.2709231   0.0000000   0.0000000
                 32       0.814332   0.8025721   0.0000000   0.0000000
                 33       0.288875   0.0000000   0.3018759   0.0000000
                 34       0.100568   0.0000000   0.0000000   0.0807265

C #1  1  Y   
                 35      34.697232   1.3596651   0.0000000   0.0000000
                 36       7.958262   1.4512589   0.0000000   0.0000000
                 37       2.378083   1.2709231   0.0000000   0.0000000
                 38       0.814332   0.8025721   0.0000000   0.0000000
                 39       0.288875   0.0000000   0.3018759   0.0000000
                 40       0.100568   0.0000000   0.0000000   0.0807265

C #1  2  Y   
                 41      34.697232   1.3596651   0.0000000   0.0000000
                 42       7.958262   1.4512589   0.0000000   0.0000000
                 43       2.378083   1.2709231   0.0000000   0.0000000
                 44       0.814332   0.8025721   0.0000000   0.0000000
                 45       0.288875   0.0000000   0.3018759   0.0000000
                 46       0.100568   0.0000000   0.0000000   0.0807265

C #1  1  Z   
                 47      34.697232   1.3596651   0.0000000   0.0000000
                 48       7.958262   1.4512589   0.0000000   0.0000000
                 49       2.378083   1.2709231   0.0000000   0.0000000
                 50       0.814332   0.8025721   0.0000000   0.0000000
                 51       0.288875   0.0000000   0.3018759   0.0000000
                 52       0.100568   0.0000000   0.0000000   0.0807265

C #1  2  Z   
                 53      34.697232   1.3596651   0.0000000   0.0000000
                 54       7.958262   1.4512589   0.0000000   0.0000000
                 55       2.378083   1.2709231   0.0000000   0.0000000
                 56       0.814332   0.8025721   0.0000000   0.0000000
                 57       0.288875   0.0000000   0.3018759   0.0000000
                 58       0.100568   0.0000000   0.0000000   0.0807265

C #1  1  XX  
                 59       1.097000   3.3522136   0.0000000
                 60       0.318000   0.0000000   0.3838995

C #1  2  XX  
                 61       1.097000   3.3522136   0.0000000
                 62       0.318000   0.0000000   0.3838995

C #1  1  XY  
                 63       1.097000   3.3522136   0.0000000
                 64       0.318000   0.0000000   0.3838995

C #1  2  XY  
                 65       1.097000   3.3522136   0.0000000
                 66       0.318000   0.0000000   0.3838995

C #1  1  XZ  
                 67       1.097000   3.3522136   0.0000000
                 68       0.318000   0.0000000   0.3838995

C #1  2  XZ  
                 69       1.097000   3.3522136   0.0000000
                 70       0.318000   0.0000000   0.3838995

C #1  1  YY  
                 71       1.097000   3.3522136   0.0000000
                 72       0.318000   0.0000000   0.3838995

C #1  2  YY  
                 73       1.097000   3.3522136   0.0000000
                 74       0.318000   0.0000000   0.3838995

C #1  1  YZ  
                 75       1.097000   3.3522136   0.0000000
                 76       0.318000   0.0000000   0.3838995

C #1  2  YZ  
                 77       1.097000   3.3522136   0.0000000
                 78       0.318000   0.0000000   0.3838995

C #1  1  ZZ  
                 79       1.097000   3.3522136   0.0000000
                 80       0.318000   0.0000000   0.3838995

C #1  2  ZZ  
                 81       1.097000   3.3522136   0.0000000
                 82       0.318000   0.0000000   0.3838995

C #1  1  F300
                 83       0.761000   3.0840084

C #1  2  F300
                 84       0.761000   3.0840084

C #1  1  F210
                 85       0.761000   3.0840084

C #1  2  F210
                 86       0.761000   3.0840084

C #1  1  F201
                 87       0.761000   3.0840084

C #1  2  F201
                 88       0.761000   3.0840084

C #1  1  F120
                 89       0.761000   3.0840084

C #1  2  F120
                 90       0.761000   3.0840084

C #1  1  F111
                 91       0.761000   3.0840084

C #1  2  F111
                 92       0.761000   3.0840084

C #1  1  F102
                 93       0.761000   3.0840084

C #1  2  F102
                 94       0.761000   3.0840084

C #1  1  F030
                 95       0.761000   3.0840084

C #1  2  F030
                 96       0.761000   3.0840084

C #1  1  F021
                 97       0.761000   3.0840084

C #1  2  F021
                 98       0.761000   3.0840084

C #1  1  F012
                 99       0.761000   3.0840084

C #1  2  F012
                100       0.761000   3.0840084

C #1  1  F003
                101       0.761000   3.0840084

C #1  2  F003
                102       0.761000   3.0840084

H #2  1  S   
                103      34.061341   0.2556299   0.0000000   0.0000000
                104       5.123575   0.4613600   0.0000000   0.0000000
                105       1.164663   0.6811215   0.0000000   0.0000000
                106       0.327230   0.0000000   0.3083545   0.0000000
                107       0.103072   0.0000000   0.0000000   0.1296483

H #2  2  S   
                108      34.061341   0.2556299   0.0000000   0.0000000
                109       5.123575   0.4613600   0.0000000   0.0000000
                110       1.164663   0.6811215   0.0000000   0.0000000
                111       0.327230   0.0000000   0.3083545   0.0000000
                112       0.103072   0.0000000   0.0000000   0.1296483

H #2  3  S   
                113      34.061341   0.2556299   0.0000000   0.0000000
                114       5.123575   0.4613600   0.0000000   0.0000000
                115       1.164663   0.6811215   0.0000000   0.0000000
                116       0.327230   0.0000000   0.3083545   0.0000000
                117       0.103072   0.0000000   0.0000000   0.1296483

H #2  4  S   
                118      34.061341   0.2556299   0.0000000   0.0000000
                119       5.123575   0.4613600   0.0000000   0.0000000
                120       1.164663   0.6811215   0.0000000   0.0000000
                121       0.327230   0.0000000   0.3083545   0.0000000
                122       0.103072   0.0000000   0.0000000   0.1296483

H #2  1  X   
                123       1.407000   2.1842770   0.0000000
                124       0.388000   0.0000000   0.4364955

H #2  2  X   
                125       1.407000   2.1842770   0.0000000
                126       0.388000   0.0000000   0.4364955

H #2  3  X   
                127       1.407000   2.1842770   0.0000000
                128       0.388000   0.0000000   0.4364955

H #2  4  X   
                129       1.407000   2.1842770   0.0000000
                130       0.388000   0.0000000   0.4364955

H #2  1  Y   
                131       1.407000   2.1842770   0.0000000
                132       0.388000   0.0000000   0.4364955

H #2  2  Y   
                133       1.407000   2.1842770   0.0000000
                134       0.388000   0.0000000   0.4364955

H #2  3  Y   
                135       1.407000   2.1842770   0.0000000
                136       0.388000   0.0000000   0.4364955

H #2  4  Y   
                137       1.407000   2.1842770   0.0000000
                138       0.388000   0.0000000   0.4364955

H #2  1  Z   
                139       1.407000   2.1842770   0.0000000
                140       0.388000   0.0000000   0.4364955

H #2  2  Z   
                141       1.407000   2.1842770   0.0000000
                142       0.388000   0.0000000   0.4364955

H #2  3  Z   
                143       1.407000   2.1842770   0.0000000
                144       0.388000   0.0000000   0.4364955

H #2  4  Z   
                145       1.407000   2.1842770   0.0000000
                146       0.388000   0.0000000   0.4364955

H #2  1  XX  
                147       1.057000   3.1412414

H #2  2  XX  
                148       1.057000   3.1412414

H #2  3  XX  
                149       1.057000   3.1412414

H #2  4  XX  
                150       1.057000   3.1412414

H #2  1  XY  
                151       1.057000   3.1412414

H #2  2  XY  
                152       1.057000   3.1412414

H #2  3  XY  
                153       1.057000   3.1412414

H #2  4  XY  
                154       1.057000   3.1412414

H #2  1  XZ  
                155       1.057000   3.1412414

H #2  2  XZ  
                156       1.057000   3.1412414

H #2  3  XZ  
                157       1.057000   3.1412414

H #2  4  XZ  
                158       1.057000   3.1412414

H #2  1  YY  
                159       1.057000   3.1412414

H #2  2  YY  
                160       1.057000   3.1412414

H #2  3  YY  
                161       1.057000   3.1412414

H #2  4  YY  
                162       1.057000   3.1412414

H #2  1  YZ  
                163       1.057000   3.1412414

H #2  2  YZ  
                164       1.057000   3.1412414

H #2  3  YZ  
                165       1.057000   3.1412414

H #2  4  YZ  
                166       1.057000   3.1412414

H #2  1  ZZ  
                167       1.057000   3.1412414

H #2  2  ZZ  
                168       1.057000   3.1412414

H #2  3  ZZ  
                169       1.057000   3.1412414

H #2  4  ZZ  
                170       1.057000   3.1412414

SYMMETRY TRANSFORMATION INTO 118 SYMMETRY-ADAPTED BASIS FUNCTIONS

    IRREDUCIBLE REPRESENTATION NUMBER 1

    1    1 C #1 S      1   1.0   2   1.0
    2    2 C #1 S      3   1.0   4   1.0
    3    3 C #1 S      5   1.0   6   1.0
    4    4 C #1 S      7   1.0   8   1.0
    5    5 C #1 S      9   1.0  10   1.0
    6    6 C #1 X     11   1.0  12  -1.0
    7    7 C #1 X     13   1.0  14  -1.0
    8    8 C #1 X     15   1.0  16  -1.0
    9    9 C #1 XX    29  -1.0  30  -1.0  41  -1.0  42  -1.0  49   2.0  50   2.0
   10   10 C #1 XX    31  -1.0  32  -1.0  43  -1.0  44  -1.0  51   2.0  52   2.0
   11   11 C #1 YY    29   1.0  30   1.0  41  -1.0  42  -1.0
   12   12 C #1 YY    31   1.0  32   1.0  43  -1.0  44  -1.0
   13   13 C #1 ZZ    53  -1.0  54   1.0  59  -1.0  60   1.0  63   4.0  64  -4.0
   14   14 C #1 ZZ    53   1.0  54  -1.0  59  -3.0  60   3.0
   15   15 C #1 F300  73   1.0  74   1.0  75   1.0  76   1.0
   16   16 C #1 F120  77   1.0  78   1.0  79   1.0  80   1.0
   17   17 C #1 F102  81   1.0  82   1.0  83   1.0  84   1.0
   18   18 H #2 S     85   1.0  86  -1.0  87   1.0  88  -1.0
   19   19 H #2 S     89   1.0  90  -1.0  91   1.0  92  -1.0
   20   20 H #2 S     93   1.0  94   1.0  95  -1.0  96  -1.0
   21   21 H #2 X     97   1.0  98   1.0  99  -1.0 100  -1.0
   22   22 H #2 X    109  -1.0 110  -1.0 111  -1.0 112  -1.0 121  -1.0 122  -1.0 123  -1.0 124  -1.0 129   2.0 130   2.0 131   2.0 132   2.0
   23   23 H #2 Y    113   1.0 114  -1.0 115  -1.0 116   1.0
   24   24 H #2 Y    109   1.0 110   1.0 111   1.0 112   1.0 121  -1.0 122  -1.0 123  -1.0 124  -1.0
   25   25 H #2 XX     1   1.0   2  -1.0
   26   26 H #2 XY     3   1.0   4  -1.0
   27   27 H #2 YY     5   1.0   6  -1.0
   28   28 H #2 ZZ     7   1.0   8  -1.0

    IRREDUCIBLE REPRESENTATION NUMBER 2

   29    1 C #1 S      9   1.0  10  -1.0
   30    2 C #1 S     11   1.0  12   1.0
   31    3 C #1 S     13   1.0  14   1.0
   32    4 C #1 S     15   1.0  16   1.0
   33    5 C #1 S     29  -1.0  30   1.0  41  -1.0  42   1.0  49   2.0  50  -2.0
   34    6 C #1 X     31  -1.0  32   1.0  43  -1.0  44   1.0  51   2.0  52  -2.0
   35    7 C #1 X     29   1.0  30  -1.0  41  -1.0  42   1.0
   36    8 C #1 X     31   1.0  32  -1.0  43  -1.0  44   1.0
   37    9 C #1 XX    53  -1.0  54  -1.0  59  -1.0  60  -1.0  63   4.0  64   4.0
   38   10 C #1 XX    53   1.0  54   1.0  59  -3.0  60  -3.0
   39   11 C #1 YY    73   1.0  74  -1.0  75   1.0  76  -1.0
   40   12 C #1 YY    77   1.0  78  -1.0  79   1.0  80  -1.0
   41   13 C #1 ZZ    81   1.0  82  -1.0  83   1.0  84  -1.0
   42   14 C #1 ZZ    85   1.0  86   1.0  87   1.0  88   1.0
   43   15 C #1 F300  89   1.0  90   1.0  91   1.0  92   1.0
   44   16 C #1 F120  93   1.0  94  -1.0  95  -1.0  96   1.0
   45   17 C #1 F102  97   1.0  98  -1.0  99  -1.0 100   1.0
   46   18 H #2 S    109  -1.0 110   1.0 111  -1.0 112   1.0 121  -1.0 122   1.0 123  -1.0 124   1.0 129   2.0 130  -2.0 131   2.0 132  -2.0
   47   19 H #2 S    113   1.0 114   1.0 115  -1.0 116  -1.0
   48   20 H #2 S    109   1.0 110  -1.0 111   1.0 112  -1.0 121  -1.0 122   1.0 123  -1.0 124   1.0
   49   21 H #2 X     17   1.0  18   1.0
   50   22 H #2 X     19   1.0  20   1.0
   51   23 H #2 Y     21   1.0  22   1.0
   52   24 H #2 Y     33   1.0  34  -1.0
   53   25 H #2 XX    35   1.0  36  -1.0
   54   26 H #2 XY    55  -1.0  56  -1.0  65  -1.0  66  -1.0  69   4.0  70   4.0
   55   27 H #2 YY    55   3.0  56   3.0  65  -1.0  66  -1.0
   56   28 H #2 ZZ    73   1.0  74   1.0  75  -1.0  76  -1.0

    IRREDUCIBLE REPRESENTATION NUMBER 3

   57    1 C #1 Y     77   1.0  78   1.0  79  -1.0  80  -1.0
   58    2 C #1 Y     81   1.0  82   1.0  83  -1.0  84  -1.0
   59    3 C #1 Y     85   1.0  86  -1.0  87  -1.0  88   1.0
   60    4 C #1 XY    89   1.0  90  -1.0  91  -1.0  92   1.0
   61    5 C #1 XY    93   1.0  94   1.0  95   1.0  96   1.0
   62    6 C #1 F210  97   1.0  98   1.0  99   1.0 100   1.0
   63    7 C #1 F030 109  -1.0 110  -1.0 111   1.0 112   1.0 121  -1.0 122  -1.0 123   1.0 124   1.0 129   2.0 130   2.0 131  -2.0 132  -2.0
   64    8 C #1 F012 113   1.0 114  -1.0 115   1.0 116  -1.0
   65    9 H #2 S    109   1.0 110   1.0 111  -1.0 112  -1.0 121  -1.0 122  -1.0 123   1.0 124   1.0
   66   10 H #2 S     17   1.0  18  -1.0
   67   11 H #2 S     19   1.0  20  -1.0
   68   12 H #2 X     21   1.0  22  -1.0
   69   13 H #2 X     33   1.0  34   1.0
   70   14 H #2 Y     35   1.0  36   1.0
   71   15 H #2 Y     55  -1.0  56   1.0  65  -1.0  66   1.0  69   4.0  70  -4.0
   72   16 H #2 XX    55   3.0  56  -3.0  65  -1.0  66   1.0
   73   17 H #2 XY    73   1.0  74  -1.0  75  -1.0  76   1.0
   74   18 H #2 YY    77   1.0  78  -1.0  79  -1.0  80   1.0
   75   19 H #2 ZZ    81   1.0  82  -1.0  83  -1.0  84   1.0

    IRREDUCIBLE REPRESENTATION NUMBER 4

   76    1 C #1 Y     85   1.0  86   1.0  87  -1.0  88  -1.0
   77    2 C #1 Y     89   1.0  90   1.0  91  -1.0  92  -1.0
   78    3 C #1 Y     93   1.0  94  -1.0  95   1.0  96  -1.0
   79    4 C #1 XY    97   1.0  98  -1.0  99   1.0 100  -1.0
   80    5 C #1 XY   109  -1.0 110   1.0 111   1.0 112  -1.0 121  -1.0 122   1.0 123   1.0 124  -1.0 129   2.0 130  -2.0 131  -2.0 132   2.0
   81    6 C #1 F210 113   1.0 114   1.0 115   1.0 116   1.0
   82    7 C #1 F030 109   1.0 110  -1.0 111  -1.0 112   1.0 121  -1.0 122   1.0 123   1.0 124  -1.0
   83    8 C #1 F012  23   1.0  24   1.0
   84    9 H #2 S     25   1.0  26   1.0
   85   10 H #2 S     27   1.0  28   1.0
   86   11 H #2 S     37   1.0  38  -1.0
   87   12 H #2 X     39   1.0  40  -1.0
   88   13 H #2 X     57  -3.0  58  -3.0  67  -3.0  68  -3.0  71   2.0  72   2.0
   89   14 H #2 Y     57   1.0  58   1.0  67  -1.0  68  -1.0
   90   15 H #2 Y    101   1.0 102   1.0 103   1.0 104   1.0
   91   16 H #2 XX   105   1.0 106   1.0 107   1.0 108   1.0
   92   17 H #2 XY   117   1.0 118  -1.0 119   1.0 120  -1.0
   93   18 H #2 YY   125   1.0 126   1.0 127  -1.0 128  -1.0
   94   19 H #2 ZZ    23   1.0  24  -1.0

    IRREDUCIBLE REPRESENTATION NUMBER 5

   95    1 C #1 Z     25   1.0  26  -1.0
   96    2 C #1 Z     27   1.0  28  -1.0
   97    3 C #1 Z     37   1.0  38   1.0
   98    4 C #1 XZ    39   1.0  40   1.0
   99    5 C #1 XZ    57  -3.0  58   3.0  67  -3.0  68   3.0  71   2.0  72  -2.0
  100    6 C #1 F201  57   1.0  58  -1.0  67  -1.0  68   1.0
  101    7 C #1 F021 101   1.0 102  -1.0 103   1.0 104  -1.0
  102    8 C #1 F003 105   1.0 106  -1.0 107   1.0 108  -1.0
  103    9 H #2 Z    117   1.0 118   1.0 119   1.0 120   1.0
  104   10 H #2 Z    125   1.0 126  -1.0 127  -1.0 128   1.0
  105   11 H #2 XZ    45   1.0  46   1.0
  106   12 H #2 YZ    47   1.0  48   1.0

    IRREDUCIBLE REPRESENTATION NUMBER 6

  107    1 C #1 Z     61   1.0  62  -1.0
  108    2 C #1 Z    101   1.0 102   1.0 103  -1.0 104  -1.0
  109    3 C #1 Z    105   1.0 106   1.0 107  -1.0 108  -1.0
  110    4 C #1 XZ   117   1.0 118  -1.0 119  -1.0 120   1.0
  111    5 C #1 XZ   125   1.0 126   1.0 127   1.0 128   1.0
  112    6 C #1 F201  45   1.0  46  -1.0
  113    7 C #1 F021  47   1.0  48  -1.0
  114    8 C #1 F003  61   1.0  62   1.0
  115    9 H #2 Z    101   1.0 102  -1.0 103  -1.0 104   1.0
  116   10 H #2 Z    105   1.0 106  -1.0 107  -1.0 108   1.0
  117   11 H #2 XZ   117   1.0 118   1.0 119  -1.0 120  -1.0
  118   12 H #2 YZ   125   1.0 126  -1.0 127   1.0 128  -1.0

    IRREDUCIBLE REPRESENTATION NUMBER 7

  119    1 C #1 YZ  
  120    2 C #1 YZ  
  121    3 C #1 F111
  122    4 H #2 Z   
  123    5 H #2 Z   
  124    6 H #2 XZ  
  125    7 H #2 YZ  

    IRREDUCIBLE REPRESENTATION NUMBER 8

  126    1 C #1 YZ  
  127    2 C #1 YZ  
  128    3 C #1 F111
  129    4 H #2 Z   
  130    5 H #2 Z   
  131    6 H #2 XZ  
  132    7 H #2 YZ  

NUCLEAR REPULSION ENERGY:   33.4514873972 A.U.

One-electron integrals took 0.046369 seconds

  @TWOEL-I,     119096 INTEGRALS OF SYMMETRY TYPE  I I I I
  @TWOEL-I,     858019 INTEGRALS OF SYMMETRY TYPE  I J I J
  @TWOEL-I,     479869 INTEGRALS OF SYMMETRY TYPE  I I J J
  @TWOEL-I,    1712313 INTEGRALS OF SYMMETRY TYPE  I J K L
  @TWOEL-I, TOTAL NUMBER OF 2-E INTEGRALS    3169297

Two-electron integrals took 7.592981 seconds

Nuclear repulsion energy: 33.451487397243
--executable xvmol finished with status     0 in       10.62 seconds (walltime).
 --invoking executable--
/project1/nike/cfour_v2.00beta_May2019xnmol_noLABBASIS/bin/xvmol2ja
--executable xvmol2ja finished with status     0 in        0.07 seconds (walltime).
 --invoking executable--
/project1/nike/cfour_v2.00beta_May2019xnmol_noLABBASIS/bin/xvscf
  There are  118 functions in the AO basis.

  There are 8 irreducible representations.

       Irrep        # of functions
         1                 24
         2                 24
         3                 17
         4                 17
         5                 11
         6                 11
         7                  7
         8                  7


  Parameters for SCF calculation: 
        SCF reference function:  UHF  
  Maximum number of iterations: ****
     Full symmetry point group: D2h 
     Computational point group: D2h 
        Initial density matrix: CORE                   
     SCF convergence tolerance: 10**(-12)
  DIIS convergence acceleration:  ON
          Latest start for DIIS:   5
                     DIIS order:   6

  Memory information:     601532 words required.
  Fock matrices are constructed from AO integral file.
 @GETMEM-I,  Allocated       4 MB of main memory.
  Initialization and symmetry analysis required      0.003 seconds.

  @INITGES-I, Occupancies from core Hamiltonian:

          Alpha population by irrep:   2    2    1    1    1    1    0    0
           Beta population by irrep:   2    2    1    1    1    0    0    0


 total no. of electrons in initial guess :  0.000000000000000E+000
 total no. of electrons in initial guess :  0.000000000000000E+000
  --------------------------------------------------------------------
  Iteration         Total Energy            Largest Density Difference
  --------------------------------------------------------------------
       0            33.451487397243149              0.0000000000D+00
   current occupation vector 
     2  2  1  1  1  1  0  0
     2  2  1  1  1  0  0  0
  processed                 119096  ao basis integrals from 
                   199  buffers.
  processed                 479869  ao basis integrals from 
                   800  buffers.
  processed                 858019  ao basis integrals from 
                  1431  buffers.
       1           -61.756139674480828              0.8911343970D+00
   current occupation vector 
     2  2  1  1  1  1  0  0
     2  2  1  1  1  0  0  0
  processed                 119096  ao basis integrals from 
                   199  buffers.
  processed                 479869  ao basis integrals from 
                   800  buffers.
  processed                 858019  ao basis integrals from 
                  1431  buffers.
       2           -69.248848985333979              0.9956159140D+01
   current occupation vector 
     3  2  1  1  1  0  0  0
     3  2  1  1  0  0  0  0
  processed                 119096  ao basis integrals from 
                   199  buffers.
  processed                 479869  ao basis integrals from 
                   800  buffers.
  processed                 858019  ao basis integrals from 
                  1431  buffers.
       3           -74.916631064349446              0.9949746029D+01
   current occupation vector 
     3  2  1  1  1  0  0  0
     3  2  1  0  1  0  0  0
  processed                 119096  ao basis integrals from 
                   199  buffers.
  processed                 479869  ao basis integrals from 
                   800  buffers.
  processed                 858019  ao basis integrals from 
                  1431  buffers.
       4           -76.769764327620891              0.2686840763D+00
   current occupation vector 
     3  2  1  1  1  0  0  0
     3  2  1  1  0  0  0  0
 
 sum over diagonal and offdiagdiagonal of C(T)*S*C for irrep
                     1
  1.233457780358549E-013  8.308937027089075E-014
 reorthoganalization of MOs is carried out
 sum over diagonal and offdiagdiagonal of C(T)*S*C for irrep
                     1
  1.293409823688307E-013  7.026460069409215E-013
 
 sum over diagonal and offdiagdiagonal of C(T)*S*C for irrep
                     2
  1.208699806909408E-012 -1.137212519926366E-012
 reorthoganalization of MOs is carried out
 sum over diagonal and offdiagdiagonal of C(T)*S*C for irrep
                     2
 -5.915268275202834E-013  3.739337796855916E-013
 
 sum over diagonal and offdiagdiagonal of C(T)*S*C for irrep
                     3
 -3.819167204710538E-014 -7.025916036029062E-014
 reorthoganalization of MOs is carried out
 sum over diagonal and offdiagdiagonal of C(T)*S*C for irrep
                     3
 -3.996802888650564E-014 -8.105537454335815E-014
 
 sum over diagonal and offdiagdiagonal of C(T)*S*C for irrep
                     4
 -5.562217353372034E-014 -2.029622735712732E-013
 reorthoganalization of MOs is carried out
 sum over diagonal and offdiagdiagonal of C(T)*S*C for irrep
                     4
 -3.952393967665557E-014  6.423024051612403E-014
 
 sum over diagonal and offdiagdiagonal of C(T)*S*C for irrep
                     5
 -3.574918139293004E-014  2.030186863890768E-014
 reorthoganalization of MOs is carried out
 sum over diagonal and offdiagdiagonal of C(T)*S*C for irrep
                     5
 -1.554312234475219E-015  1.192961202912957E-016
 
 sum over diagonal and offdiagdiagonal of C(T)*S*C for irrep
                     6
  3.097522238704187E-014  2.353619957349423E-015
 reorthoganalization of MOs is carried out
 sum over diagonal and offdiagdiagonal of C(T)*S*C for irrep
                     6
 -1.554312234475219E-015 -2.042291303520211E-015
 
 sum over diagonal and offdiagdiagonal of C(T)*S*C for irrep
                     7
  3.552713678800501E-015  1.404258653803225E-015
 reorthoganalization of MOs is carried out
 sum over diagonal and offdiagdiagonal of C(T)*S*C for irrep
                     7
 -1.776356839400250E-015 -3.673276960380889E-016
 
 sum over diagonal and offdiagdiagonal of C(T)*S*C for irrep
                     8
  5.329070518200751E-015  4.946130310878871E-015
 reorthoganalization of MOs is carried out
 sum over diagonal and offdiagdiagonal of C(T)*S*C for irrep
                     8
 -1.554312234475219E-015  2.337539883878748E-015
 
 sum over diagonal and offdiagdiagonal of C(T)*S*C for irrep
                     1
  8.082423619271140E-014  4.585019402172197E-013
 reorthoganalization of MOs is carried out
 sum over diagonal and offdiagdiagonal of C(T)*S*C for irrep
                     1
  4.185540802836840E-014 -2.461273435344861E-013
 
 sum over diagonal and offdiagdiagonal of C(T)*S*C for irrep
                     2
  7.109868249699502E-013 -5.873680825200297E-013
 reorthoganalization of MOs is carried out
 sum over diagonal and offdiagdiagonal of C(T)*S*C for irrep
                     2
 -2.218225603201063E-013 -2.623602730737491E-014
 
 sum over diagonal and offdiagdiagonal of C(T)*S*C for irrep
                     3
  2.442490654175344E-015 -7.473755907769566E-014
 reorthoganalization of MOs is carried out
 sum over diagonal and offdiagdiagonal of C(T)*S*C for irrep
                     3
 -4.907185768843192E-014 -4.846654422740147E-014
 
 sum over diagonal and offdiagdiagonal of C(T)*S*C for irrep
                     4
 -2.842170943040401E-014 -6.336771597153915E-014
 reorthoganalization of MOs is carried out
 sum over diagonal and offdiagdiagonal of C(T)*S*C for irrep
                     4
 -1.998401444325282E-014 -1.034265292140568E-013
 
 sum over diagonal and offdiagdiagonal of C(T)*S*C for irrep
                     5
 -1.643130076445232E-014  2.051992202458525E-014
 reorthoganalization of MOs is carried out
 sum over diagonal and offdiagdiagonal of C(T)*S*C for irrep
                     5
 -1.998401444325282E-015 -7.617604463883154E-016
 
 sum over diagonal and offdiagdiagonal of C(T)*S*C for irrep
                     6
  2.309263891220326E-014 -1.896104936472201E-014
 reorthoganalization of MOs is carried out
 sum over diagonal and offdiagdiagonal of C(T)*S*C for irrep
                     6
 -1.221245327087672E-015 -2.852678217344501E-015
 
 sum over diagonal and offdiagdiagonal of C(T)*S*C for irrep
                     7
  1.176836406102666E-014  1.385176695567480E-015
 reorthoganalization of MOs is carried out
 sum over diagonal and offdiagdiagonal of C(T)*S*C for irrep
                     7
  0.000000000000000E+000  8.352693536828326E-016
 
 sum over diagonal and offdiagdiagonal of C(T)*S*C for irrep
                     8
  5.218048215738236E-015  1.732988752500830E-015
 reorthoganalization of MOs is carried out
 sum over diagonal and offdiagdiagonal of C(T)*S*C for irrep
                     8
 -6.661338147750939E-016  2.867497905789662E-015
  processed                 119096  ao basis integrals from 
                   199  buffers.
  processed                 479869  ao basis integrals from 
                   800  buffers.
  processed                 858019  ao basis integrals from 
                  1431  buffers.
       5           -77.604401761531079              0.2525391773D+00
   current occupation vector 
     3  2  1  1  1  0  0  0
     3  2  1  1  0  0  0  0
  processed                 119096  ao basis integrals from 
                   199  buffers.
  processed                 479869  ao basis integrals from 
                   800  buffers.
  processed                 858019  ao basis integrals from 
                  1431  buffers.
       6           -77.732304340175858              0.3464156022D-01
   current occupation vector 
     3  2  1  1  1  0  0  0
     3  2  1  1  0  0  0  0
  processed                 119096  ao basis integrals from 
                   199  buffers.
  processed                 479869  ao basis integrals from 
                   800  buffers.
  processed                 858019  ao basis integrals from 
                  1431  buffers.
       7           -77.738149394490932              0.7358610872D-02
   current occupation vector 
     3  2  1  1  1  0  0  0
     3  2  1  1  0  0  0  0
  processed                 119096  ao basis integrals from 
                   199  buffers.
  processed                 479869  ao basis integrals from 
                   800  buffers.
  processed                 858019  ao basis integrals from 
                  1431  buffers.
       8           -77.738221606771930              0.1206087854D-02
   current occupation vector 
     3  2  1  1  1  0  0  0
     3  2  1  1  0  0  0  0
  processed                 119096  ao basis integrals from 
                   199  buffers.
  processed                 479869  ao basis integrals from 
                   800  buffers.
  processed                 858019  ao basis integrals from 
                  1431  buffers.
       9           -77.738232225851135              0.2832603348D-03
   current occupation vector 
     3  2  1  1  1  0  0  0
     3  2  1  1  0  0  0  0
 
 sum over diagonal and offdiagdiagonal of C(T)*S*C for irrep
                     1
  2.061684156728916E-013  1.228761256892940E-013
 reorthoganalization of MOs is carried out
 sum over diagonal and offdiagdiagonal of C(T)*S*C for irrep
                     1
 -9.303668946358812E-014 -1.959824088557608E-013
 
 sum over diagonal and offdiagdiagonal of C(T)*S*C for irrep
                     2
  5.748734821509061E-013 -6.098253319554453E-013
 reorthoganalization of MOs is carried out
 sum over diagonal and offdiagdiagonal of C(T)*S*C for irrep
                     2
  3.044231533522179E-013 -1.717210844203628E-013
 
 sum over diagonal and offdiagdiagonal of C(T)*S*C for irrep
                     3
 -2.775557561562891E-014 -1.105779264459862E-013
 reorthoganalization of MOs is carried out
 sum over diagonal and offdiagdiagonal of C(T)*S*C for irrep
                     3
  8.770761894538737E-015 -3.348465391607238E-014
 
 sum over diagonal and offdiagdiagonal of C(T)*S*C for irrep
                     4
 -7.149836278586008E-014 -4.266251014842324E-014
 reorthoganalization of MOs is carried out
 sum over diagonal and offdiagdiagonal of C(T)*S*C for irrep
                     4
  1.154631945610163E-014 -4.996205374061240E-014
 
 sum over diagonal and offdiagdiagonal of C(T)*S*C for irrep
                     5
 -5.773159728050814E-015  4.585009672278262E-015
 reorthoganalization of MOs is carried out
 sum over diagonal and offdiagdiagonal of C(T)*S*C for irrep
                     5
  1.554312234475219E-015  4.192474275729885E-016
 
 sum over diagonal and offdiagdiagonal of C(T)*S*C for irrep
                     6
  2.775557561562891E-014 -3.216535111177921E-014
 reorthoganalization of MOs is carried out
 sum over diagonal and offdiagdiagonal of C(T)*S*C for irrep
                     6
 -2.775557561562891E-015 -1.366799468743851E-015
 
 sum over diagonal and offdiagdiagonal of C(T)*S*C for irrep
                     7
  2.087219286295294E-014 -2.167233406624725E-014
 reorthoganalization of MOs is carried out
 sum over diagonal and offdiagdiagonal of C(T)*S*C for irrep
                     7
 -1.110223024625157E-015  5.689893001203927E-016
 
 sum over diagonal and offdiagdiagonal of C(T)*S*C for irrep
                     8
  3.996802888650564E-015  3.023270652921517E-015
 reorthoganalization of MOs is carried out
 sum over diagonal and offdiagdiagonal of C(T)*S*C for irrep
                     8
 -6.661338147750939E-016  6.120456788952233E-016
 
 sum over diagonal and offdiagdiagonal of C(T)*S*C for irrep
                     1
  1.891820033961267E-013 -2.143564796081589E-013
 reorthoganalization of MOs is carried out
 sum over diagonal and offdiagdiagonal of C(T)*S*C for irrep
                     1
 -8.260059303211165E-014  2.385070553658236E-013
 
 sum over diagonal and offdiagdiagonal of C(T)*S*C for irrep
                     2
  1.196820420545919E-012 -1.321838195562237E-012
 reorthoganalization of MOs is carried out
 sum over diagonal and offdiagdiagonal of C(T)*S*C for irrep
                     2
  8.304468224196171E-014  1.909354040677044E-013
 
 sum over diagonal and offdiagdiagonal of C(T)*S*C for irrep
                     3
 -2.187139358511558E-014 -2.476007167680628E-013
 reorthoganalization of MOs is carried out
 sum over diagonal and offdiagdiagonal of C(T)*S*C for irrep
                     3
 -1.409983241273949E-014  5.038946455409367E-014
 
 sum over diagonal and offdiagdiagonal of C(T)*S*C for irrep
                     4
 -8.237854842718662E-014 -1.653119474805381E-014
 reorthoganalization of MOs is carried out
 sum over diagonal and offdiagdiagonal of C(T)*S*C for irrep
                     4
  3.730349362740526E-014 -6.361029985488568E-014
 
 sum over diagonal and offdiagdiagonal of C(T)*S*C for irrep
                     5
 -1.265654248072678E-014  4.923565353164017E-015
 reorthoganalization of MOs is carried out
 sum over diagonal and offdiagdiagonal of C(T)*S*C for irrep
                     5
 -2.220446049250313E-016 -1.040630797678743E-016
 
 sum over diagonal and offdiagdiagonal of C(T)*S*C for irrep
                     6
  2.353672812205332E-014 -3.495202174561007E-014
 reorthoganalization of MOs is carried out
 sum over diagonal and offdiagdiagonal of C(T)*S*C for irrep
                     6
  9.992007221626409E-016  2.016399200388541E-015
 
 sum over diagonal and offdiagdiagonal of C(T)*S*C for irrep
                     7
  1.187938636348917E-014 -2.417597372295077E-014
 reorthoganalization of MOs is carried out
 sum over diagonal and offdiagdiagonal of C(T)*S*C for irrep
                     7
  0.000000000000000E+000 -3.838075690598686E-016
 
 sum over diagonal and offdiagdiagonal of C(T)*S*C for irrep
                     8
  7.771561172376096E-015  3.012813522967894E-014
 reorthoganalization of MOs is carried out
 sum over diagonal and offdiagdiagonal of C(T)*S*C for irrep
                     8
 -7.771561172376096E-016  3.114912841550854E-015
  processed                 119096  ao basis integrals from 
                   199  buffers.
  processed                 479869  ao basis integrals from 
                   800  buffers.
  processed                 858019  ao basis integrals from 
                  1431  buffers.
      10           -77.738233911857691              0.1174032793D-03
   current occupation vector 
     3  2  1  1  1  0  0  0
     3  2  1  1  0  0  0  0
  processed                 119096  ao basis integrals from 
                   199  buffers.
  processed                 479869  ao basis integrals from 
                   800  buffers.
  processed                 858019  ao basis integrals from 
                  1431  buffers.
      11           -77.738234407050754              0.5220486113D-04
   current occupation vector 
     3  2  1  1  1  0  0  0
     3  2  1  1  0  0  0  0
  processed                 119096  ao basis integrals from 
                   199  buffers.
  processed                 479869  ao basis integrals from 
                   800  buffers.
  processed                 858019  ao basis integrals from 
                  1431  buffers.
      12           -77.738234624555929              0.4868421419D-04
   current occupation vector 
     3  2  1  1  1  0  0  0
     3  2  1  1  0  0  0  0
  processed                 119096  ao basis integrals from 
                   199  buffers.
  processed                 479869  ao basis integrals from 
                   800  buffers.
  processed                 858019  ao basis integrals from 
                  1431  buffers.
      13           -77.738234644756346              0.2006599594D-04
   current occupation vector 
     3  2  1  1  1  0  0  0
     3  2  1  1  0  0  0  0
  processed                 119096  ao basis integrals from 
                   199  buffers.
  processed                 479869  ao basis integrals from 
                   800  buffers.
  processed                 858019  ao basis integrals from 
                  1431  buffers.
      14           -77.738234644787752              0.5758095805D-06
   current occupation vector 
     3  2  1  1  1  0  0  0
     3  2  1  1  0  0  0  0
 
 sum over diagonal and offdiagdiagonal of C(T)*S*C for irrep
                     1
  1.650901637617608E-013  2.001088819668986E-013
 reorthoganalization of MOs is carried out
 sum over diagonal and offdiagdiagonal of C(T)*S*C for irrep
                     1
 -2.509104035652854E-014 -3.948797207029420E-013
 
 sum over diagonal and offdiagdiagonal of C(T)*S*C for irrep
                     2
  1.400213278657247E-012 -1.025448573798497E-012
 reorthoganalization of MOs is carried out
 sum over diagonal and offdiagdiagonal of C(T)*S*C for irrep
                     2
 -5.347944309619379E-013  5.137425048875053E-013
 
 sum over diagonal and offdiagdiagonal of C(T)*S*C for irrep
                     3
 -8.437694987151190E-014 -1.838461123039368E-013
 reorthoganalization of MOs is carried out
 sum over diagonal and offdiagdiagonal of C(T)*S*C for irrep
                     3
  1.021405182655144E-013 -1.343333970084022E-014
 
 sum over diagonal and offdiagdiagonal of C(T)*S*C for irrep
                     4
 -9.214851104388799E-014 -6.937947683401851E-014
 reorthoganalization of MOs is carried out
 sum over diagonal and offdiagdiagonal of C(T)*S*C for irrep
                     4
  1.459943277382081E-013  5.724674630413736E-014
 
 sum over diagonal and offdiagdiagonal of C(T)*S*C for irrep
                     5
 -1.754152378907747E-014  1.311593249373605E-014
 reorthoganalization of MOs is carried out
 sum over diagonal and offdiagdiagonal of C(T)*S*C for irrep
                     5
  2.220446049250313E-016  2.765013695435470E-015
 
 sum over diagonal and offdiagdiagonal of C(T)*S*C for irrep
                     6
  3.508304757815495E-014 -3.778574675372681E-014
 reorthoganalization of MOs is carried out
 sum over diagonal and offdiagdiagonal of C(T)*S*C for irrep
                     6
  1.110223024625157E-015 -2.824292449216115E-015
 
 sum over diagonal and offdiagdiagonal of C(T)*S*C for irrep
                     7
  1.865174681370263E-014 -1.661301304856089E-014
 reorthoganalization of MOs is carried out
 sum over diagonal and offdiagdiagonal of C(T)*S*C for irrep
                     7
 -6.661338147750939E-016 -8.018759267702791E-016
 
 sum over diagonal and offdiagdiagonal of C(T)*S*C for irrep
                     8
  1.543210004228968E-014  1.415615671560011E-015
 reorthoganalization of MOs is carried out
 sum over diagonal and offdiagdiagonal of C(T)*S*C for irrep
                     8
  1.221245327087672E-015  2.064266726303776E-015
 
 sum over diagonal and offdiagdiagonal of C(T)*S*C for irrep
                     1
  1.815214645262131E-013 -5.957188125815467E-014
 reorthoganalization of MOs is carried out
 sum over diagonal and offdiagdiagonal of C(T)*S*C for irrep
                     1
 -7.949196856316121E-014  2.330038824663311E-013
 
 sum over diagonal and offdiagdiagonal of C(T)*S*C for irrep
                     2
  7.744915819785092E-013 -8.228103436264494E-013
 reorthoganalization of MOs is carried out
 sum over diagonal and offdiagdiagonal of C(T)*S*C for irrep
                     2
  3.687050664780145E-013 -2.653281775504222E-013
 
 sum over diagonal and offdiagdiagonal of C(T)*S*C for irrep
                     3
 -2.664535259100376E-015 -7.443727742756454E-014
 reorthoganalization of MOs is carried out
 sum over diagonal and offdiagdiagonal of C(T)*S*C for irrep
                     3
 -1.078026556911027E-013 -1.244649251878541E-013
 
 sum over diagonal and offdiagdiagonal of C(T)*S*C for irrep
                     4
 -3.064215547965432E-014 -4.355924021275884E-014
 reorthoganalization of MOs is carried out
 sum over diagonal and offdiagdiagonal of C(T)*S*C for irrep
                     4
 -1.310063169057685E-014 -4.146466156540463E-014
 
 sum over diagonal and offdiagdiagonal of C(T)*S*C for irrep
                     5
 -7.771561172376096E-015  9.203273858065728E-015
 reorthoganalization of MOs is carried out
 sum over diagonal and offdiagdiagonal of C(T)*S*C for irrep
                     5
 -6.661338147750939E-016 -2.495299770304861E-015
 
 sum over diagonal and offdiagdiagonal of C(T)*S*C for irrep
                     6
  2.131628207280301E-014 -3.579444683363131E-014
 reorthoganalization of MOs is carried out
 sum over diagonal and offdiagdiagonal of C(T)*S*C for irrep
                     6
 -6.661338147750939E-016  1.939637686576567E-015
 
 sum over diagonal and offdiagdiagonal of C(T)*S*C for irrep
                     7
  1.021405182655144E-014 -1.767769958194165E-014
 reorthoganalization of MOs is carried out
 sum over diagonal and offdiagdiagonal of C(T)*S*C for irrep
                     7
 -1.110223024625157E-015 -9.601694439531627E-016
 
 sum over diagonal and offdiagdiagonal of C(T)*S*C for irrep
                     8
  1.032507412901396E-014  4.041667174548014E-014
 reorthoganalization of MOs is carried out
 sum over diagonal and offdiagdiagonal of C(T)*S*C for irrep
                     8
  8.881784197001252E-016  7.535205098774256E-016
  processed                 119096  ao basis integrals from 
                   199  buffers.
  processed                 479869  ao basis integrals from 
                   800  buffers.
  processed                 858019  ao basis integrals from 
                  1431  buffers.
      15           -77.738234644799462              0.3756371085D-06
   current occupation vector 
     3  2  1  1  1  0  0  0
     3  2  1  1  0  0  0  0
  processed                 119096  ao basis integrals from 
                   199  buffers.
  processed                 479869  ao basis integrals from 
                   800  buffers.
  processed                 858019  ao basis integrals from 
                  1431  buffers.
      16           -77.738234644800343              0.7949630672D-07
   current occupation vector 
     3  2  1  1  1  0  0  0
     3  2  1  1  0  0  0  0
  processed                 119096  ao basis integrals from 
                   199  buffers.
  processed                 479869  ao basis integrals from 
                   800  buffers.
  processed                 858019  ao basis integrals from 
                  1431  buffers.
      17           -77.738234644800514              0.1096948291D-07
   current occupation vector 
     3  2  1  1  1  0  0  0
     3  2  1  1  0  0  0  0
  processed                 119096  ao basis integrals from 
                   199  buffers.
  processed                 479869  ao basis integrals from 
                   800  buffers.
  processed                 858019  ao basis integrals from 
                  1431  buffers.
      18           -77.738234644800741              0.2530818909D-08
   current occupation vector 
     3  2  1  1  1  0  0  0
     3  2  1  1  0  0  0  0
  processed                 119096  ao basis integrals from 
                   199  buffers.
  processed                 479869  ao basis integrals from 
                   800  buffers.
  processed                 858019  ao basis integrals from 
                  1431  buffers.
      19           -77.738234644800372              0.5526531802D-09
   current occupation vector 
     3  2  1  1  1  0  0  0
     3  2  1  1  0  0  0  0
 
 sum over diagonal and offdiagdiagonal of C(T)*S*C for irrep
                     1
  1.547650896327468E-013 -1.642553233508564E-013
 reorthoganalization of MOs is carried out
 sum over diagonal and offdiagdiagonal of C(T)*S*C for irrep
                     1
  5.040412531798211E-014  1.151615565199690E-013
 
 sum over diagonal and offdiagdiagonal of C(T)*S*C for irrep
                     2
  1.065814103640150E-012 -3.778526032752062E-013
 reorthoganalization of MOs is carried out
 sum over diagonal and offdiagdiagonal of C(T)*S*C for irrep
                     2
 -4.041211809635570E-014 -7.207281176191171E-013
 
 sum over diagonal and offdiagdiagonal of C(T)*S*C for irrep
                     3
 -7.771561172376096E-015 -1.638715373017273E-013
 reorthoganalization of MOs is carried out
 sum over diagonal and offdiagdiagonal of C(T)*S*C for irrep
                     3
 -3.708144902248023E-014 -1.068822309190065E-013
 
 sum over diagonal and offdiagdiagonal of C(T)*S*C for irrep
                     4
 -1.256772463875677E-013 -2.021974117137485E-014
 reorthoganalization of MOs is carried out
 sum over diagonal and offdiagdiagonal of C(T)*S*C for irrep
                     4
  1.436628593864953E-013 -4.530170218174177E-015
 
 sum over diagonal and offdiagdiagonal of C(T)*S*C for irrep
                     5
 -1.443289932012704E-014  2.124026594798462E-014
[...]
        T2        AA    0.0000000000-0.0000000006    6    5   92   50
        T2        BB    0.0000000000 0.0000000001    3    2   92   81
        T2        AB    0.0000000000-0.0000000012    6    4   50   81
    -------------------------------------------------------------------
   The AA contribution to the correlation energy is:   -0.0363608 a.u.
   The BB contribution to the correlation energy is:   -0.0159249 a.u.
   The AB contribution to the correlation energy is:   -0.2487421 a.u.
   The total correlation energy is -0.301027881743 a.u.
   The total correlation energy is -0.301027881743 a.u.
  Current DIIS expansion coefficients : 
 [   1] 1.2889514575 [   2] 0.0052578496 [   3] 0.0098511861 [   4]-0.0587294285
 [   5]-0.2453310646
  Convergence information after    16 iterations: 
  Largest element of residual vector : -0.12355835E-08.
  Largest element of DIIS residual   : -0.52496108E-09.
  W(mnij) AA contribution =  0.0050233226 a.u.
  W(mnij) BB contribution =  0.0019039107 a.u.
  W(mnij) AB contribution =  0.0525319009 a.u.
  W(abef) AA contribution =  0.0069349403 a.u.
  W(abef) BB contribution =  0.0026441484 a.u.
  W(abef) AB contribution =  0.0764690298 a.u.
  W(mbej) AA contribution =  -0.0140900734 a.u.
  W(mbej) BB contribution =  -0.0050202223 a.u.
  W(mbej) AB contribution = -0.1833387830 a.u.
   After  17 iterations, amplitude changes are:
    -------------------------------------------------------------------
                 Spin      RMS          Max.      Max. change for
     Amplitude   Case     Change       Change       i    j    a    b
    -------------------------------------------------------------------
        T1        AA    0.0000000000 0.0000000001    5        66
        T1        BB    0.0000000000-0.0000000001    5        67
        T2        AA    0.0000000000-0.0000000002    6    5   92   50
        T2        BB    0.0000000000 0.0000000000    5    4   65   49
        T2        AB    0.0000000000-0.0000000003    6    4   50   81
    -------------------------------------------------------------------
   The AA contribution to the correlation energy is:   -0.0363608 a.u.
   The BB contribution to the correlation energy is:   -0.0159249 a.u.
   The AB contribution to the correlation energy is:   -0.2487421 a.u.
   The total correlation energy is -0.301027881750 a.u.
   The total correlation energy is -0.301027881750 a.u.
  Current DIIS expansion coefficients : 
 [   1]-0.0354469886 [   2] 1.1139106789 [   3] 0.0019979089 [   4] 0.0190053201
 [   5]-0.0994669194
  Convergence information after    17 iterations: 
  Largest element of residual vector : -0.29221543E-09.
  Largest element of DIIS residual   : -0.15459589E-09.
  Amplitude equations converged in    17iterations.
   The AA contribution to the correlation energy is:   -0.0363608 a.u.
   The BB contribution to the correlation energy is:   -0.0159249 a.u.
   The AB contribution to the correlation energy is:   -0.2487421 a.u.
   The total correlation energy is -0.301027881751 a.u.
   The total correlation energy is -0.301027881751 a.u.
   The CC iterations have converged.

            ----------------------------------------------
                     Projected spin multiplicities: 
            ----------------------------------------------
             <0|S^2|0>                  =    0.7549953316.
             <0|S^2 (T2+T1**2) |0>      =   -0.0034460383.
             <0|S^2 T1|0>               =   -0.0012347376.
             Projected <0|S^2 exp(T)|0> =    0.7503145557.
             Approximate spin mult.     =    2.0003145310.
            ----------------------------------------------
   Largest T1 amplitudes for spin case AA:
   i       a                 i       a                 i       a    
-----------------------------------------------------------------------------
[  6      83    ] 0.01104 [  6      85    ] 0.01008 [  6      82    ] 0.00720
[  6      84    ] 0.00512 [  4      52    ] 0.00415 [  4      51    ]-0.00402
[  4      56    ] 0.00397 [  2      16    ]-0.00380 [  2      11    ]-0.00347
[  4      50    ] 0.00332 [  5      72    ] 0.00327 [  2      10    ] 0.00305
[  6      86    ] 0.00299 [  3      31    ] 0.00271 [  1       8    ] 0.00268
-----------------------------------------------------------------------------
   Norm of T1AA vector (      106 symmetry allowed elements):  0.0231243778.
-----------------------------------------------------------------------------
   Largest T2 amplitudes for spin case AA:
   i   j   a   b             i   j   a   b             i   j   a   b
-----------------------------------------------------------------------------
[  6   2  92  32] 0.02664 [  6   5  92  51]-0.02290 [  6   2  92  30] 0.01499
[  6   3  92   8]-0.01450 [  6   2  92  31] 0.01444 [  6   2  92  33] 0.01294
[  6   3  92   7]-0.01273 [  6   2  92  29] 0.01262 [  6   2  93  32] 0.01212
[  5   2  51  32] 0.01173 [  6   4 103   8] 0.01144 [  6   4  92  66]-0.01136
[  6   4 103  10]-0.01119 [  6   5  92  54]-0.01101 [  6   4  82  50]-0.01012
-----------------------------------------------------------------------------
   Norm of T2AA vector (    11765 symmetry allowed elements):  0.1119866574.
-----------------------------------------------------------------------------
   Largest T1 amplitudes for spin case BB:
   i       a                 i       a                 i       a    
-----------------------------------------------------------------------------
[  3      30    ] 0.00808 [  1       8    ]-0.00690 [  4      51    ] 0.00680
[  4      50    ]-0.00667 [  4      49    ] 0.00622 [  1      11    ]-0.00587
[  1       9    ] 0.00508 [  4      55    ] 0.00450 [  3      27    ] 0.00442
[  5      69    ] 0.00383 [  3      35    ] 0.00347 [  3      29    ]-0.00329
[  2      14    ]-0.00315 [  5      71    ] 0.00313 [  5      66    ] 0.00310
-----------------------------------------------------------------------------
   Norm of T1BB vector (       96 symmetry allowed elements):  0.0232137982.
-----------------------------------------------------------------------------
   Largest T2 amplitudes for spin case BB:
   i   j   a   b             i   j   a   b             i   j   a   b
-----------------------------------------------------------------------------
[  5   2  50  31]-0.01158 [  4   1 103  81]-0.00927 [  3   1  92  81]-0.00866
[  4   2  49   7] 0.00865 [  2   1  83  81] 0.00853 [  4   2  51   7] 0.00847
[  5   1 110  81] 0.00835 [  5   2  50  28]-0.00818 [  4   2  51  10] 0.00783
[  5   2  53  31]-0.00772 [  4   3 103  92]-0.00735 [  4   2  49  10] 0.00677
[  4   2 103  83] 0.00621 [  5   2  52  31]-0.00602 [  4   3  50  31] 0.00602
-----------------------------------------------------------------------------
   Norm of T2BB vector (     8549 symmetry allowed elements):  0.0691273833.
-----------------------------------------------------------------------------
   Largest T2 amplitudes for spin case AB:
       _       _                 _       _                 _       _
   i   j   a   b             i   j   a   b             i   j   a   b
-----------------------------------------------------------------------------
[  6   2  92  31]-0.03238 [  3   1  92  81]-0.02844 [  3   3  92  92]-0.02567
[  2   2  32  31] 0.02169 [  6   3  92   6]-0.02081 [  6   5  92  50]-0.01992
[  6   1  92  30]-0.01907 [  1   3  92  81]-0.01870 [  4   1 103  81] 0.01810
[  6   1   8  81] 0.01758 [  2   1  83  81]-0.01675 [  4   4  50  49]-0.01611
[  6   1  92  31]-0.01598 [  6   3  31  81]-0.01595 [  6   1  10  81]-0.01592
-----------------------------------------------------------------------------
   Norm of T2AB vector (    49774 symmetry allowed elements):  0.2964594822.
-----------------------------------------------------------------------------
       Summary of iterative solution of CC equations 
      -----------------------------------------------------------
                       Correlation           Total
       Iteration         Energy              Energy
      -----------------------------------------------------------
            0        -0.269457554614     -78.007692199415  DIIS 
            1        -0.292664574879     -78.030899219679  DIIS 
            2        -0.298663516239     -78.036898161039  DIIS 
            3        -0.300665862804     -78.038900507604  DIIS 
            4        -0.301000472464     -78.039235117264  DIIS 
            5        -0.301026358451     -78.039261003251  DIIS 
            6        -0.301026996016     -78.039261640816  DIIS 
            7        -0.301027841372     -78.039262486172  DIIS 
            8        -0.301027517051     -78.039262161851  DIIS 
            9        -0.301027780714     -78.039262425514  DIIS 
           10        -0.301027838279     -78.039262483079  DIIS 
           11        -0.301027868671     -78.039262513471  DIIS 
           12        -0.301027877256     -78.039262522056  DIIS 
           13        -0.301027880383     -78.039262525183  DIIS 
           14        -0.301027881474     -78.039262526275  DIIS 
           15        -0.301027881663     -78.039262526464  DIIS 
           16        -0.301027881743     -78.039262526543  DIIS 
           17        -0.301027881751     -78.039262526552  DIIS 
      -----------------------------------------------------------
      A miracle has come to pass. The CC iterations have converged.
 @DIMT3-I, Dimensions of T3 amplitudes : 
               # abc          # ijk       Symmetry    Spin 
                    28037              1     1          1
                    27983              3     2          1
                    28065              3     3          1
                    28065              3     4          1
                    25969              1     5          1
                    25915              3     6          1
                    25893              3     7          1
                    25893              3     8          1
                    87076             11     1          2
                    87022             13     2          2
                    86576             13     3          2
                    86576             13     4          2
                    79820              7     5          2
                    79821              6     6          2
                    79277              6     7          2
                    79277              6     8          2
                    87752             11     1          3
                    87697             13     2          3
                    87213             13     3          3
                    87213             13     4          3
                    80753              1     5          3
                    80698              3     6          3
                    80112              3     7          3
                    80112              3     8          3
                    28713              1     1          4
                    28658              3     2          4
                    28702              3     3          4
                    28702              3     4          4
                    26792              0     5          4
                    26792              0     6          4
                    26728              0     7          4
                    26728              0     8          4
 @DIMT3-I, Dimensions of T3 amplitudes : 
               # abc          # ijk       Symmetry    Spin 
                    28037              1     1          1
                    27983              3     2          1
                    28065              3     3          1
                    28065              3     4          1
                    25969              1     5          1
                    25915              3     6          1
                    25893              3     7          1
                    25893              3     8          1
                    87076             11     1          2
                    87022             13     2          2
                    86576             13     3          2
                    86576             13     4          2
                    79820              7     5          2
                    79821              6     6          2
                    79277              6     7          2
                    79277              6     8          2
                    87752             11     1          3
                    87697             13     2          3
                    87213             13     3          3
                    87213             13     4          3
                    80753              1     5          3
                    80698              3     6          3
                    80112              3     7          3
                    80112              3     8          3
                    28713              1     1          4
                    28658              3     2          4
                    28702              3     3          4
                    28702              3     4          4
                    26792              0     5          4
                    26792              0     6          4
                    26728              0     7          4
                    26728              0     8          4
 @TRPS-I, Welcome to TRPS. Watch your RUs ! 
 @TRPS-I, Method is CCSD(T) 
 @TRPS-I, Calculation type is energy 
 @TRPS-I, Reference function information : 
          Reference function is Hartree-Fock 
          Reference function is UHF Hartree-Fock 
 @TRPS-I, INT1 is true 
 @TRPS-I, INT2 is false 
 @TRPS-I, Lengths of ijka integrals. #1       1334
                                     #2        933
                                     #3       2566
                                     #4       2896
                                    Max       2896
 @INITRP-I, Initializing W intermediate lists. 
 @TSPABCI-I, AbIc/AbcI record transposition. 
 @TSPABCI-I, (O,v) ---> (v,O) transposition. 
 @TSPABCI-I, In-core algorithm is being used. 
 @TSPABCI-I, In-core algorithm is being used. 
 @TSPABCI-I, In-core algorithm is being used. 
 @TSPABCI-I, In-core algorithm is being used. 
 @TSPABCI-I, In-core algorithm is being used. 
 @TSPABCI-I, In-core algorithm is being used. 
 @TSPABCI-I, In-core algorithm is being used. 
 @TSPABCI-I, In-core algorithm is being used. 
 @TRPS-I, Available memory in integer words    499959040
          Number of pre-allocated words for TRPS14         8883
          Number of free words for TRPS14    499950157
 @TRPS14-I, Spin case AAA 
 @TRPS14-I, Number of free integer words  499950157
            Number of free double words   499950157
            Ratio                                 1
 @TRPS14-I, E4TAAA      -0.000377462002
 @TRPS14-I, E5ST A    0.000009116586237
 @TRPS-I, Available memory in integer words    499959040
          Number of pre-allocated words for TRPS14         8878
          Number of free words for TRPS14    499950162
 @TRPS14-I, Spin case BBB 
 @TRPS14-I, Number of free integer words  499950162
            Number of free double words   499950162
            Ratio                                 1
 @TRPS14-I, E4TBBB      -0.000063539218
 @TRPS14-I, E5ST B    0.000001465599710
 @SETOOOV-I, Some OOOV lists are being transposed. 
 @TRPS-I, Available memory in integer words    499959040
          Number of pre-allocated words for TRPS2        48773
          Number of free words for TRPS2    499910267
 @TRPS2-I, Spin case AAB 
 @TRPS2-I, Number of free integer words  499910267
           Number of free double  words  499910267
           Ratio                                 1
 @TRPS2-I, E4TBAA      -0.005325731099
 @TRPS2-I, E5ST A    0.000056579550638
 @TRPS2-I, E5ST B    0.000036580919710
 @SETOOOV-I, Some OOOV lists are being transposed. 
 @TSPABCI2-I, (Alpha,Beta) ---> (Beta,Alpha). 
 @TSPABCI2-I, In-core algorithm is being used. 
 @TSPABCI2-I, In-core algorithm is being used. 
 @TSPABCI2-I, In-core algorithm is being used. 
 @TSPABCI2-I, In-core algorithm is being used. 
 @TSPABCI2-I, In-core algorithm is being used. 
 @TSPABCI2-I, In-core algorithm is being used. 
 @TSPABCI2-I, In-core algorithm is being used. 
 @TSPABCI2-I, In-core algorithm is being used. 
 @TSPABCI2-I, In-core algorithm is being used. 
 @TSPABCI2-I, In-core algorithm is being used. 
 @TSPABCI2-I, In-core algorithm is being used. 
 @TSPABCI2-I, In-core algorithm is being used. 
 @TSPABCI2-I, In-core algorithm is being used. 
 @TSPABCI2-I, In-core algorithm is being used. 
 @TSPABCI2-I, In-core algorithm is being used. 
 @TSPABCI2-I, In-core algorithm is being used. 
 @AT2IAB-I, Some AbIj lists are being altered. 
 @TRPS-I, Available memory in integer words    499959040
          Number of pre-allocated words for TRPS3        83653
          Number of free words for TRPS3    499875387
 @TRPS3-I, Spin case BBA 
 @TRPS3-I, Number of free integer words  499875387
           Number of free double  words  499875387
           Ratio                                 1
 @TRPS3-I, E4TBBA      -0.003235527477
 @TRPS3-I, E5ST A    0.000071466404635
 @TRPS3-I, E5ST B    0.000076172126556
 @TSPABCI2-I, (Beta,Alpha) ---> (Alpha,Beta). 
 @TSPABCI2-I, In-core algorithm is being used. 
 @TSPABCI2-I, In-core algorithm is being used. 
 @TSPABCI2-I, In-core algorithm is being used. 
 @TSPABCI2-I, In-core algorithm is being used. 
 @TSPABCI2-I, In-core algorithm is being used. 
 @TSPABCI2-I, In-core algorithm is being used. 
 @TSPABCI2-I, In-core algorithm is being used. 
 @TSPABCI2-I, In-core algorithm is being used. 
 @TSPABCI2-I, In-core algorithm is being used. 
 @TSPABCI2-I, In-core algorithm is being used. 
 @TSPABCI2-I, In-core algorithm is being used. 
 @TSPABCI2-I, In-core algorithm is being used. 
 @TSPABCI2-I, In-core algorithm is being used. 
 @TSPABCI2-I, In-core algorithm is being used. 
 @TSPABCI2-I, In-core algorithm is being used. 
 @TSPABCI2-I, In-core algorithm is being used. 
 @AT2IAB-I, Some AbIj lists are being altered. 
 @TSPABCI-I, AbIc/AbcI record transposition. 
 @TSPABCI-I, (v,O) ---> (O,v) transposition. 
 @TSPABCI-I, In-core algorithm is being used. 
 @TSPABCI-I, In-core algorithm is being used. 
 @TSPABCI-I, In-core algorithm is being used. 
 @TSPABCI-I, In-core algorithm is being used. 
 @TSPABCI-I, In-core algorithm is being used. 
 @TSPABCI-I, In-core algorithm is being used. 
 @TSPABCI-I, In-core algorithm is being used. 
 @TSPABCI-I, In-core algorithm is being used. 
 @CCENRG-I, CCSD/QCISD energy will now be evaluated. 
 @CCENRG-I, Correlation energies. ECCAA       -0.036360846700
                                  ECCBB       -0.015924939909
                                  ECCAB       -0.248742095143
                                  Total       -0.301027881751
 @CCENRG-I, Reference   energy     -77.738234644800
            CCSD/QCISD energy      -78.039262526552
          E4T (T(CCSD)) = -0.009002259796
          E5ST          =  0.000147638531
          E4ST          =  0.000000000000
          In other words  
          <T3[2](Dagger) D3  T3[2]> = -0.009002259796
          <T1   (Dagger) Q1 WT3[2]> =  0.000147638531
          <T2   (Dagger) Q2 FT3[2]> =  0.000000000000
        E(CCSD)           =     -78.039262526552
        E(CCSD + T(CCSD)) =     -78.048264786348
        E(CCSD(T))        =     -78.048117147817
  @CHECKOUT-I, Total execution time (CPU/WALL):       27.46/      28.33 seconds.
--executable xvcc finished with status     0 in       29.33 seconds (walltime).
  The final electronic energy is       -78.048117147816598 a.u. 
  This computation required                           88.73 seconds (walltime).
--- SharcNET Job Epilogue ---
Job completed successfully.
               jobid: 1963897
               resid: 3433369
         exit status: 0
      allocated time: 90.0614
           user time: 37.24
         system time: 8.74
peak rss=628711424; peak vsz=628711424 (bytes)
atime=90.0614; utime=37.24; stime=8.74; exit=0
