 --invoking executable--
/home/nike/cfour_v2.00beta/cfour_v2.00beta/bin/xjoda


   *************************************************************************
         <<<     CCCCCC     CCCCCC   |||     CCCCCC     CCCCCC   >>>
       <<<      CCC        CCC       |||    CCC        CCC         >>>
      <<<      CCC        CCC        |||   CCC        CCC            >>>
    <<<        CCC        CCC        |||   CCC        CCC              >>>
      <<<      CCC        CCC        |||   CCC        CCC            >>>
       <<<      CCC        CCC       |||    CCC        CCC         >>>
         <<<     CCCCCC     CCCCCC   |||     CCCCCC     CCCCCC   >>>
   *************************************************************************

     ****************************************************************
     * CFOUR Coupled-Cluster techniques for Computational Chemistry *
     ****************************************************************
 

   Department of Chemistry                Institut fuer Physikalische Chemie
   University of Texas at Austin          Universitaet Mainz
   Austin, TX  78712, USA                 D-55099 Mainz, Germany
 
                       Version 2.00beta
 
                     blg8323.int.ets1.calculquebec.ca                  
                     Mi 26. Feb 00:28:23 EST 2020                      
                     integer*8 version is running
 
********************************************************************************
*                          Input from ZMAT file                                *
********************************************************************************
TITLE                                                                           
Na   -2.4732949   -1.7969539   -0.2367313                                       
Na   -2.4732949    1.7969539   -0.2367313                                       
Na    0.9447146   -2.9075325   -0.2367313                                       
Na    0.9447146    2.9075325   -0.2367313                                       
Na    3.0571606    0.0000000   -0.2367313                                       
Na    0.0000000    0.0000000    1.1836565                                       
                                                                                
*ACES2(CALC=CCSD(T)                                                             
#UNITS=BOHR                                                                     
#GEOM=2.6729874*10/5.29177210903_Pentasilane_def2-QZVP_pbe                      
COORD=CARTESIAN                                                                 
#COORD=INTERNAL                                                                 
PRINT=4                                                                         
JODA_PRINT=4                                                                    
INPUT_MRCC=OFF                                                                  
#CC_PROG=MRCC                                                                   
#FROZEN_CORE=ON                                                                 
DROPMO=1>6                                                                      
CONTRACTION=GENERAL                                                             
#CONTRACTION=SEGMENTED                                                          
RELATIVISTIC=OFF                                                                
#EXCITE=EOMEE                                                                   
#ESTATE_CONV=5                                                                  
#ESTATE_SYM=2/2/2/2/2/2/2/2                                                     
XFORM_TOL=18                                                                    
SAVE_INTS=ON                                                                    
SCF_EXPORDER=6                                                                  
SCF_EXPSTART=5                                                                  
#SCF_DAMPING=1000                                                               
SCF_EXTRAPOLATION=ON                                                            
SCF_CONV=12                                                                     
SCF_MAXCYC=99999                                                                
CC_CONV=9                                                                       
CC_MAXCYC=999                                                                   
T3_EXTRAPOL=ON                                                                  
REFERENCE=RHF                                                                   
#SYMMETRY=OFF                                                                   
#HFSTABILITY=FOLLOW                                                             
CHARGE=+0                                                                       
MULT=1                                                                          
ABCDTYPE=STANDARD                                                               
#OCCUPATION=3-2-2-0-1-0-0-0/3-1-1-0-1-0-0-0                                     
MEM=12                                                                          
MEM_UNIT=GB                                                                     
BASIS=SPECIAL)                                                                  
                                                                                
NA:def2-TZVPP                                                                   
NA:def2-TZVPP                                                                   
NA:def2-TZVPP                                                                   
NA:def2-TZVPP                                                                   
NA:def2-TZVPP                                                                   
NA:def2-TZVPP                                                                   
                                                                                
********************************************************************************
  @GTFLGS-W, Keyword #UNITS not known and is ignored.
  @GTFLGS-W, Keyword #GEOM not known and is ignored.
  @GTFLGS-W, Keyword #COORD not known and is ignored.
  @GTFLGS-W, Keyword #CC_PROG not known and is ignored.
  @GTFLGS-W, Keyword #FROZEN_CORE not known and is ignored.
  @GTFLGS-W, Keyword #CONTRACTION not known and is ignored.
  @GTFLGS-W, Keyword #EXCITE not known and is ignored.
  @GTFLGS-W, Keyword #ESTATE_CONV not known and is ignored.
  @GTFLGS-W, Keyword #ESTATE_SYM not known and is ignored.
  @GTFLGS-W, Keyword #SCF_DAMPING not known and is ignored.
  @GTFLGS-W, Keyword #SYMMETRY not known and is ignored.
  @GTFLGS-W, Keyword #HFSTABILITY not known and is ignored.
  @GTFLGS-W, Keyword #OCCUPATION not known and is ignored.
    -------------------------------------------------------------------
                    CFOUR Control Parameters 
    -------------------------------------------------------------------
        External           Internal           Value            Units
          Name               Name
    -------------------------------------------------------------------
       ABCDTYPE             IABCDT         STANDARD     [  0]   ***   
       ANHARMONIC           IANHAR         OFF          [  0]   ***   
       ANH_ALGORIT          IANALG         STANDARD     [  0]   ***   
       ANH_DERIVAT          IANDER         SECOND       [  1]   ***   
       ANH_STEPSIZ          ICUBST             50000          x 10-6  
       ANH_SYMMETR          IANHSM         ABELIAN      [  0]   ***   
       AO_LADDERS           IAOLAD         SINGLEPASS   [  1]   ***   
       BASIS                IBASIS         SPECIAL      [  0]   ***   
       BREIT                IBREIT         OFF          [  0]   ***   
       BRUCK_CONV           IBRTOL          10D-  4             ***   
       BRUECKNER            IBRKNR             OFF      [  0]   ***   
       BUFFERSIZE           IBUFFS            600               ***   
       CACHE_RECS           ICHREC             10               ***   
       CALCLEVEL            ICLLVL           CCSD(T)    [ 22]   ***   
       CCORBOPT             ICCORB             OFF      [  0] x 0.01  
       CC_CONV              ICCCNV          10D-  9             ***   
       CC_EXPORDER          ICCEOR              5               ***   
       CC_EXTRAPOL          ICCEXT             DIIS     [  1]   ***   
       CC_MAXCYC            ICCCYC            999              cycles 
       CC_PROGRAM           ICCPRO         VCC          [  0]   ***   
       CHARGE               ICHRGE              0               ***   
       CHOLESKY             ICHOLE         OFF          [  0]   ***   
       CIS_CONV             ICISTL              5               ***   
       COMM_SIZE            IPSIZE            ***               ***   
       CONSTANT             ICONST         OLD          [  1]   ***   
       CONTINUUM            ICONTU         NONE         [  0]   ***   
       CONTRACTION          ICNTYP          GENERAL     [  1]   ***   
       COORDINATES          ICOORD         CARTESIAN    [  1]   ***   
       CPHF_CONVER          ICPHFT          10D- 16             ***   
       CPHF_MAXCYC          ICPHFC             64              cycles 
       CUBIC                ICUBIC         OFF          [  0]   ***   
       CURVILINEAR          ICURVY            OFF       [  0]   ***   
       DBOC                 IDBOC          OFF          [  0]   ***   
       DCT                  IDCT           OFF          [  0]   ***   
       DERIV_LEV            IDRLVL            ZERO      [  0]   ***   
       DIAG_MRCC            IEOMST          10D-  0             ***   
       DIFF_TYPE            IDIFTY         RELAXED      [  0]   ***   
       DIRECT               IDIRCT         OFF          [  0]   ***   
       DROPMO               IDRPMO   1,  2,  3,  4,  5,  6,
       ECP                  IECP           OFF          [  0]   ***   
       EIGENVECTOR          IVEC                1               ***   
       EL_ANHARM            IELANH         OFF          [  0]   ***   
       EOMFOLLOW            IEOMSR         ENERGY       [  0]   ***   
       EOM_MRCC             IMRCCE         NEW          [  1]   ***   
       EOM_NONIT            EOMNON         OFF          [  0]   ***   
       EOM_NSING            IEOMSI          10D-  0             ***   
       EOM_NSTATES          IMRCCD         DAVIDSON     [  0]   ***   
       EOM_NTRIP            IEOMTR          10D-  0             ***   
       EOM_ORDER            IEXORD         ENERGY       [  0]   ***   
       ESTATE_CONV          IEXTOL          10D-  5             ***   
       ESTATE_DIAG          IEXDIG         ITERATIVE    [  0]   ***   
       ESTATE_LOCK          IESLOC         ON           [  1]   ***   
       ESTATE_MAXC          IEXMXC             20               ***   
       ESTATE_PROP          IEXPRP         OFF          [  0]   ***   
       EVAL_HESS            IRECAL              0            # of cyc.
       EXCITATION           IEXCIT              0               ***   
       EXCITE               IEXCIT         NONE         [  0]   ***   
       FCGRADNEW            IFCGNW         OFF          [  0]   ***   
       FC_FIELD             IFINFC              0             x 10-6  
       FD_CALTYPE           IFDCAL         GRADONLY     [  0]   ***   
       FD_PROJECT           IFDPRJ         OFF          [  1]   ***   
       FD_STEPSIZE          IDISFD              0            10-4 bohr
       FD_USEGROUP          IFDGRP         FULL         [  0]   ***   
       FILE_RECSIZ          IFLREC              4096           words  
       FINITE_PERT          IFIPER              0             x 10-6  
       FIXGEOM              IFIXGM         OFF          [  0]   ***   
       FOCK                 IFOCK          AO           [  1]   ***   
       FREQ_ALGORI          IVIALG         STANDARD     [  0]   ***   
       FROZEN_CORE          IFROCO         OFF          [  0]   ***   
       FROZEN_VIRT          IFROVI         OFF          [  0]   ***   
       GAMMA_ABCD           IGABCD         STORE        [  0]   ***   
       GAMMA_ABCI           IGABCI         STORE        [  0]   ***   
       GENBAS_1             IGNBS1              0               ***   
       GENBAS_2             IGNBS2              0               ***   
       GENBAS_3             IGNBS3              0               ***   
       GENBAS_4             IGNBS4              0               ***   
       GEO_CONV             ICONTL              5              H/bohr 
       GEO_MAXCYC           IOPTCY             50               ***   
       GEO_MAXSTEP          IMXSTP            300            millibohr
       GEO_METHOD           INR            SINGLE_POINT [  5]   ***   
       GIAO                 IGIAO          OFF          [  1]   ***   
       GIMIC                IGIMIC         OFF          [  0]   ***   
       GRID                 IGRID          OFF          [  0]   ***   
       GRID_ALGO            IGALGO         SERIAL       [  0]   ***   
       GUESS                IGUESS            MOREAD    [  0]   ***   
       HBAR                 IHBAR              OFF      [  0]   ***   
       HESS_TYPE            IHESTP         SCF          [  0]   ***   
       HF2_FILE             IHF2Fl         USE          [  1]   ***   
       HFSTABILITY          ISTABL         OFF          [  0]   ***   
       INCORE               INCORE             OFF      [  0]   ***   
       INPUT_MRCC           IMRCC          OFF          [  0]   ***   
       INTEGRALS            INTTYP             VMOL     [  1]   ***   
       JODA_PRINT           IJPRNT              4               ***   
       LINDEP_TOL           ILINDP              8               ***   
       LINEQ_CONV           IZTACN          10D-  7           cycles  
       LINEQ_EXPOR          ILMAXD              5               ***   
       LINEQ_MAXCY          ILMAXC             50               ***   
       LINEQ_TYPE           ILTYPE         DIIS         [  1]   ***   
       LOCK_ORBOCC          ILOCOC             OFF      [  0]   ***   
       MEMORY_SIZE          IMEMSZ         *********           words  
       MEM_UNIT             IMEMU          GB           [  3]   ***   
       MRCC                 IMRCCC         OFF          [  0]   ***   
       MULTIPLICTY          IMULTP              1               ***   
       NEGEVAL              IDIE             ABORT      [  0]   ***   
       NEWNORM              INEWNO         OFF          [  0]   ***   
       NON-HF               INONHF             OFF      [  0]   ***   
       NTOP_TAMP            ITOPT2             15               ***   
       NUC_MODEL            INUCMO         POINT        [  0]   ***   
       OCCUPATION           IOCCU   ESTIMATED BY SCF 
       OPEN-SHELL           IOPEN          SPIN-ORBITAL [  0]   ***   
       ORBITALS             IORBTP           STANDARD   [  0]   ***   
       PARALLEL             IPARAL         ON           [  1]   ***   
       PARA_INT             IPINTS         ON           [  1]   ***   
       PARA_PRINT           IPPRIN              0               ***   
       PERT_ORB             IPTORB         STANDARD     [  0]   ***   
       POINTS               IGRDFD              0               ***   
       PRINT                IPRNT               4               ***   
       PROPS                IPROPS             OFF      [  0]   ***   
       PROP_INTEGR          IINTYP         INTERNAL     [  0]   ***   
       PSI                  IPSI           OFF          [  0]   ***   
       QUARTIC              IQUART         OFF          [  0]   ***   
       RAMAN_INT            IRAMIN         OFF          [  0]   ***   
       RAMAN_ORB            IRAMRE         UNRELAXED    [  0]   ***   
       RDO                  IRDOFM             OFF      [  0]   ***   
       REFERENCE            IREFNC             RHF      [  0]   ***   
       RELATIVIST           IRELAT         OFF          [  0]   ***   
       RELAX_DENS           IRDENS             OFF      [  0]   ***   
       RESET_FLAGS          IRESET             OFF      [  0]   ***   
       RESTART_CC           ICCRES         OFF          [  0]   ***   
       ROT_EVEC             ROTVEC              0               ***   
       SAVE_INTS            ISVINT              ON      [  1]   ***   
       SCALE_ON             ISTCRT              0               ***   
       SCF_CONV             ISCFCV          10D- 12             ***   
       SCF_DAMPING          IDAMP               0             x 10-3  
       SCF_EXPORDE          IRPPOR              6               ***   
       SCF_EXPSTAR          IRPPLS              5               ***   
       SCF_EXTRAPO          IRPP                ON      [  1]   ***   
       SCF_MAXCYC           ISCFCY            ***              cycles 
       SCF_NOSTOP           ISCFST         OFF          [  0]   ***   
       SCF_PRINT            ISCFPR              0               ***   
       SD_FIELD             IFINSD              0             x 10-6  
       SEQUENCE             ISEQUE         OFF          [  0]   ***   
       SOPERT               IPERSO         OFF          [  0]   ***   
       SPHERICAL            IDFGHI             ON       [  1]   ***   
       SPINORBIT            ISOCAL         OFF          [  0]   ***   
       SPINROTATIO          ISRCON         OFF          [  0]   ***   
       SPIN_FLIP            ISPFLP         OFF          [  0]   ***   
       SPIN_ORBIT           ISPORB         OFF          [  0]   ***   
       SPIN_SCAL            ISCSMP         OFF          [  0]   ***   
       SUBGROUP             ISUBGP         DEFAULT      [  0]   ***   
       SUBGRPAXIS           ISBXYZ         X            [  0]   ***   
       SYMMETRY             ISYM             ON         [  0]   ***   
       SYM_CHECK            ISYMCK         OVERRIDE     [  1]   ***   
       T3_EXTRAPOL          IT3EXT         ON           [  1]   ***   
       TAMP_SUM             IEVERY              5               ***   
       TESTSUITE            ITESTS         OFF          [  0]   ***   
       THERMOCH             ITHERM         OFF          [  0]   ***   
       TOL_CHOLESK          ITOLCH          10D-  4             ***   
       TRANGRAD             IRESRM         OFF          [  0]   ***   
       TRANS_INV            ITRAIN         USE          [  0]   ***   
       TREAT_PERT           ITREAT         SIMULTANEOUS [  0]   ***   
       UIJ_THRESHO          IUIJTH              1               ***   
       UNITS                IUNITS         ANGSTROM     [  0]   ***   
       UNOS                 IUNOS          OFF          [  0]   ***   
       UPDATE_HESS          IHUPDT         ON           [  1]   ***   
       VIBPHASE             ISETPH         STANDARD     [  0]   ***   
       VIBRATION            IVIB              NO        [  0]   ***   
       VIB_ALGORIT          IGEALG         STANDARD     [  0]   ***   
       VNATORB              IVNORB         OFF          [  0]   ***   
       VTRAN                IVTRAN         FULL/PARTIAL [  0]   ***   
       XFIELD               IXEFLD              0             x 10-6  
       XFORM_TOL            IXFTOL          10D- 18             ***   
       YFIELD               IYEFLD              0             x 10-6  
       ZFIELD               IZEFLD              0             x 10-6  
    -------------------------------------------------------------------
  @GETXYZ-I,     6 atoms read from ZMAT.
  1  NA        11    22.98977
  2  NA        11    22.98977
  3  NA        11    22.98977
  4  NA        11    22.98977
  5  NA        11    22.98977
  6  NA        11    22.98977
  1  NA        11    22.98977
  2  NA        11    22.98977
  3  NA        11    22.98977
  4  NA        11    22.98977
  5  NA        11    22.98977
  6  NA        11    22.98977
   22.9897677000
   22.9897677000
   22.9897677000
   22.9897677000
   22.9897677000
   22.9897677000
 After translation to center of mass coordinates 
       -4.673850965962   -3.395751441247   -0.447357415882
       -4.673850965962    3.395751441247   -0.447357415882
        1.785252234082   -5.494441274953   -0.447357415882
        1.785252234082    5.494441274953   -0.447357415882
        5.777197463760    0.000000000000   -0.447357415882
        0.000000000000    0.000000000000    2.236787079411
  Inertia tensor (amu*bohr**2)
 2056.29414    0.00000    0.00000
    0.00000 2056.29419    0.00000
    0.00000    0.00000 3836.53365
    Inertia tensor:
      ****************    0.000000000000    0.000000000000
        0.000000000000  ****************    0.000000000000
        0.000000000000    0.000000000000  ****************
    Principal axis orientation for molecular system: 
       -4.673850965962   -3.395751441247   -0.447357415882
       -4.673850965962    3.395751441247   -0.447357415882
        1.785252234082   -5.494441274953   -0.447357415882
        1.785252234082    5.494441274953   -0.447357415882
        5.777197463760    0.000000000000   -0.447357415882
        0.000000000000    0.000000000000    2.236787079411
    Diagonalized inertia tensor:
      ****************    0.000000000000    0.000000000000
        0.000000000000  ****************    0.000000000000
        0.000000000000    0.000000000000  ****************
    Eigenvectors of inertia tensor: 
        1.000000000000    0.000000000000    0.000000000000
        0.000000000000    1.000000000000    0.000000000000
        0.000000000000    0.000000000000    1.000000000000
 factor:   60.1997200000000     
   Rotational constants (in cm-1): 
          0.0156911748             0.0292758305             0.0292758311
   Rotational constants (in MHz): 
        470.4096512213           877.6674411099           877.6674584646
  @SYMMETRY-I, Handedness of inertial frame: 1.00000
  @SYMMETRY-I, The symmetry group is 1-fold degenerate.
  @SYMMETRY-I, The molecule belongs to an Abelian group.
   Principal axis orientation for molecule:
       -4.673850965962   -3.395751441247   -0.447357415882
       -4.673850965962    3.395751441247   -0.447357415882
        1.785252234082   -5.494441274953   -0.447357415882
        1.785252234082    5.494441274953   -0.447357415882
        5.777197463760    0.000000000000   -0.447357415882
        0.000000000000    0.000000000000    2.236787079411
   Reflection in plane  2 is a valid symmetry operation.
  Symmetry bits:    2   0   0
********************************************************************************
   The full molecular point group is C s .
   The largest Abelian subgroup of the full molecular point group is C s .
   The computational point group is C s .
********************************************************************************
 ----------------------------------------------------------------
 Z-matrix   Atomic            Coordinates (in bohr)
  Symbol    Number           X              Y              Z
 ----------------------------------------------------------------
     NA       11        -0.44735742    -4.67385097    -3.39575144
     NA       11        -0.44735742    -4.67385097     3.39575144
     NA       11        -0.44735742     1.78525223    -5.49444127
     NA       11        -0.44735742     1.78525223     5.49444127
     NA       11        -0.44735742     5.77719746     0.00000000
     NA       11         2.23678708     0.00000000     0.00000000
 ----------------------------------------------------------------
   Interatomic distance matrix (Angstroms) 
 
                 NA            NA            NA            NA            NA   
                [ 1]        [ 2]        [ 3]        [ 4]        [ 5]
  NA   [ 1]     0.00000
  NA   [ 2]     3.59391     0.00000
  NA   [ 3]     3.59391     5.81507     0.00000
  NA   [ 4]     5.81507     3.59391     5.81506     0.00000
  NA   [ 5]     5.81507     5.81507     3.59391     3.59391     0.00000
  NA   [ 6]     3.37101     3.37101     3.37101     3.37101     3.37101
 
                 NA   
                [ 6]
  NA   [ 6]     0.00000
  Inertia tensor (amu*bohr**2)
 3836.53365    0.00000    0.00000
    0.00000 2056.29414    0.00000
    0.00000    0.00000 2056.29419
   Rotational constants (in cm-1): 
          0.0156911748             0.0292758311             0.0292758305
   Rotational constants (in MHz): 
        470.4096512213           877.6674584646           877.6674411099
  @GTFLGS-W, Keyword #UNITS not known and is ignored.
  @GTFLGS-W, Keyword #GEOM not known and is ignored.
  @GTFLGS-W, Keyword #COORD not known and is ignored.
  @GTFLGS-W, Keyword #CC_PROG not known and is ignored.
  @GTFLGS-W, Keyword #FROZEN_CORE not known and is ignored.
  @GTFLGS-W, Keyword #CONTRACTION not known and is ignored.
  @GTFLGS-W, Keyword #EXCITE not known and is ignored.
  @GTFLGS-W, Keyword #ESTATE_CONV not known and is ignored.
  @GTFLGS-W, Keyword #ESTATE_SYM not known and is ignored.
  @GTFLGS-W, Keyword #SCF_DAMPING not known and is ignored.
  @GTFLGS-W, Keyword #SYMMETRY not known and is ignored.
  @GTFLGS-W, Keyword #HFSTABILITY not known and is ignored.
  @GTFLGS-W, Keyword #OCCUPATION not known and is ignored.
  There are  192 basis functions.
 @GEOPT-W, Archive file not created for single-point calculation.
  @CHECKOUT-I, Total execution time (CPU/WALL):        0.63/       1.72 seconds.
--executable xjoda finished with status     0 in        2.64 seconds (walltime).
 --invoking executable--
/home/nike/cfour_v2.00beta/cfour_v2.00beta/bin/xvmol
 Serial version of molecule started
********************************************************************************
                    Input from MOL file
********************************************************************************
INTGRL        1    0    1    0    0    0    0    0    0                         
         *** CFOUR Program System (Release V0.1) ***                            
TITLE                                                                           
    4    1 Z          0.10E-08              0    0                              
   9999.00      3.00                                                            
         11.00000000    1    3    1    1    1                                   
NA#1  -0.447357415882131  -4.673850965962058  -3.395751441247175                
   14    5                                                                      
   26041.1099270000       6.180634281100000E-004  0.000000000000000E+000        
  0.000000000000000E+000  0.000000000000000E+000  0.000000000000000E+000        
   3906.12685480000       4.774860441400000E-003  0.000000000000000E+000        
  0.000000000000000E+000  0.000000000000000E+000  0.000000000000000E+000        
   888.974549930000       2.447168482900000E-002  0.000000000000000E+000        
  0.000000000000000E+000  0.000000000000000E+000  0.000000000000000E+000        
   251.454979610000       9.475539497700000E-002  0.000000000000000E+000        
  0.000000000000000E+000  0.000000000000000E+000  0.000000000000000E+000        
   81.6501435120000       0.268674969200000       0.000000000000000E+000        
  0.000000000000000E+000  0.000000000000000E+000  0.000000000000000E+000        
   28.9041584010000       0.479254754400000       0.000000000000000E+000        
  0.000000000000000E+000  0.000000000000000E+000  0.000000000000000E+000        
   10.6257829320000       0.332485914690000       0.000000000000000E+000        
  0.000000000000000E+000  0.000000000000000E+000  0.000000000000000E+000        
   53.7694101790000       0.000000000000000E+000  1.952773187200000E-002        
  0.000000000000000E+000  0.000000000000000E+000  0.000000000000000E+000        
   16.3082430250000       0.000000000000000E+000  9.264801079399999E-002        
  0.000000000000000E+000  0.000000000000000E+000  0.000000000000000E+000        
   2.37303841250000       0.000000000000000E+000 -0.399386701720000             
  0.000000000000000E+000  0.000000000000000E+000  0.000000000000000E+000        
  0.957307726030000       0.000000000000000E+000  0.000000000000000E+000        
   1.64285953910000       0.000000000000000E+000  0.000000000000000E+000        
  0.408064609590000       0.000000000000000E+000  0.000000000000000E+000        
  0.556925969660000       0.000000000000000E+000  0.000000000000000E+000        
  4.996758232900000E-002  0.000000000000000E+000  0.000000000000000E+000        
  0.000000000000000E+000   1.00000000000000       0.000000000000000E+000        
  1.926861625000000E-002  0.000000000000000E+000  0.000000000000000E+000        
  0.000000000000000E+000  0.000000000000000E+000   1.00000000000000             
    8    4                                                                      
   138.079799890000       5.795189192900000E-003  0.000000000000000E+000        
  0.000000000000000E+000  0.000000000000000E+000                                
   32.2327003930000       4.162084625100000E-002  0.000000000000000E+000        
  0.000000000000000E+000  0.000000000000000E+000                                
   9.98160753600000       0.162819168850000       0.000000000000000E+000        
  0.000000000000000E+000  0.000000000000000E+000                                
   3.48220339280000       0.360117846470000       0.000000000000000E+000        
  0.000000000000000E+000  0.000000000000000E+000                                
   1.22991346200000       0.448589798890000       0.000000000000000E+000        
  0.000000000000000E+000  0.000000000000000E+000                                
  0.417439594230000       0.000000000000000E+000  0.230407595590000             
  0.000000000000000E+000  0.000000000000000E+000                                
  3.000000000000000E-002  0.000000000000000E+000  0.000000000000000E+000        
   1.00000000000000       0.000000000000000E+000                                
  9.100000000000000E-002  0.000000000000000E+000  0.000000000000000E+000        
  0.000000000000000E+000   1.00000000000000                                     
    3    3                                                                      
   2.60900000000000        1.00000000000000       0.000000000000000E+000        
  0.000000000000000E+000                                                        
  0.430000000000000       0.000000000000000E+000   1.00000000000000             
  0.000000000000000E+000                                                        
  0.100000000000000       0.000000000000000E+000  0.000000000000000E+000        
   1.00000000000000                                                             
         11.00000000    1    3    1    1    1                                   
NA#2  -0.447357415882131   1.785252234081936  -5.494441274953131                
   14    5                                                                      
   26041.1099270000       6.180634281100000E-004  0.000000000000000E+000        
  0.000000000000000E+000  0.000000000000000E+000  0.000000000000000E+000        
   3906.12685480000       4.774860441400000E-003  0.000000000000000E+000        
  0.000000000000000E+000  0.000000000000000E+000  0.000000000000000E+000        
   888.974549930000       2.447168482900000E-002  0.000000000000000E+000        
  0.000000000000000E+000  0.000000000000000E+000  0.000000000000000E+000        
   251.454979610000       9.475539497700000E-002  0.000000000000000E+000        
  0.000000000000000E+000  0.000000000000000E+000  0.000000000000000E+000        
   81.6501435120000       0.268674969200000       0.000000000000000E+000        
  0.000000000000000E+000  0.000000000000000E+000  0.000000000000000E+000        
   28.9041584010000       0.479254754400000       0.000000000000000E+000        
  0.000000000000000E+000  0.000000000000000E+000  0.000000000000000E+000        
   10.6257829320000       0.332485914690000       0.000000000000000E+000        
  0.000000000000000E+000  0.000000000000000E+000  0.000000000000000E+000        
   53.7694101790000       0.000000000000000E+000  1.952773187200000E-002        
  0.000000000000000E+000  0.000000000000000E+000  0.000000000000000E+000        
   16.3082430250000       0.000000000000000E+000  9.264801079399999E-002        
  0.000000000000000E+000  0.000000000000000E+000  0.000000000000000E+000        
   2.37303841250000       0.000000000000000E+000 -0.399386701720000             
  0.000000000000000E+000  0.000000000000000E+000  0.000000000000000E+000        
  0.957307726030000       0.000000000000000E+000  0.000000000000000E+000        
   1.64285953910000       0.000000000000000E+000  0.000000000000000E+000        
  0.408064609590000       0.000000000000000E+000  0.000000000000000E+000        
  0.556925969660000       0.000000000000000E+000  0.000000000000000E+000        
  4.996758232900000E-002  0.000000000000000E+000  0.000000000000000E+000        
  0.000000000000000E+000   1.00000000000000       0.000000000000000E+000        
  1.926861625000000E-002  0.000000000000000E+000  0.000000000000000E+000        
  0.000000000000000E+000  0.000000000000000E+000   1.00000000000000             
    8    4                                                                      
   138.079799890000       5.795189192900000E-003  0.000000000000000E+000        
  0.000000000000000E+000  0.000000000000000E+000                                
   32.2327003930000       4.162084625100000E-002  0.000000000000000E+000        
  0.000000000000000E+000  0.000000000000000E+000                                
   9.98160753600000       0.162819168850000       0.000000000000000E+000        
  0.000000000000000E+000  0.000000000000000E+000                                
   3.48220339280000       0.360117846470000       0.000000000000000E+000        
  0.000000000000000E+000  0.000000000000000E+000                                
   1.22991346200000       0.448589798890000       0.000000000000000E+000        
  0.000000000000000E+000  0.000000000000000E+000                                
  0.417439594230000       0.000000000000000E+000  0.230407595590000             
  0.000000000000000E+000  0.000000000000000E+000                                
  3.000000000000000E-002  0.000000000000000E+000  0.000000000000000E+000        
   1.00000000000000       0.000000000000000E+000                                
  9.100000000000000E-002  0.000000000000000E+000  0.000000000000000E+000        
  0.000000000000000E+000   1.00000000000000                                     
    3    3                                                                      
   2.60900000000000        1.00000000000000       0.000000000000000E+000        
  0.000000000000000E+000                                                        
  0.430000000000000       0.000000000000000E+000   1.00000000000000             
  0.000000000000000E+000                                                        
  0.100000000000000       0.000000000000000E+000  0.000000000000000E+000        
   1.00000000000000                                                             
         11.00000000    1    3    1    1    1                                   
NA#3  -0.447357415882131   5.777197463760243   0.000000000000000                
   14    5                                                                      
   26041.1099270000       6.180634281100000E-004  0.000000000000000E+000        
  0.000000000000000E+000  0.000000000000000E+000  0.000000000000000E+000        
   3906.12685480000       4.774860441400000E-003  0.000000000000000E+000        
  0.000000000000000E+000  0.000000000000000E+000  0.000000000000000E+000        
   888.974549930000       2.447168482900000E-002  0.000000000000000E+000        
  0.000000000000000E+000  0.000000000000000E+000  0.000000000000000E+000        
   251.454979610000       9.475539497700000E-002  0.000000000000000E+000        
  0.000000000000000E+000  0.000000000000000E+000  0.000000000000000E+000        
   81.6501435120000       0.268674969200000       0.000000000000000E+000        
  0.000000000000000E+000  0.000000000000000E+000  0.000000000000000E+000        
   28.9041584010000       0.479254754400000       0.000000000000000E+000        
  0.000000000000000E+000  0.000000000000000E+000  0.000000000000000E+000        
   10.6257829320000       0.332485914690000       0.000000000000000E+000        
  0.000000000000000E+000  0.000000000000000E+000  0.000000000000000E+000        
   53.7694101790000       0.000000000000000E+000  1.952773187200000E-002        
  0.000000000000000E+000  0.000000000000000E+000  0.000000000000000E+000        
   16.3082430250000       0.000000000000000E+000  9.264801079399999E-002        
  0.000000000000000E+000  0.000000000000000E+000  0.000000000000000E+000        
   2.37303841250000       0.000000000000000E+000 -0.399386701720000             
  0.000000000000000E+000  0.000000000000000E+000  0.000000000000000E+000        
  0.957307726030000       0.000000000000000E+000  0.000000000000000E+000        
   1.64285953910000       0.000000000000000E+000  0.000000000000000E+000        
  0.408064609590000       0.000000000000000E+000  0.000000000000000E+000        
  0.556925969660000       0.000000000000000E+000  0.000000000000000E+000        
  4.996758232900000E-002  0.000000000000000E+000  0.000000000000000E+000        
  0.000000000000000E+000   1.00000000000000       0.000000000000000E+000        
  1.926861625000000E-002  0.000000000000000E+000  0.000000000000000E+000        
  0.000000000000000E+000  0.000000000000000E+000   1.00000000000000             
    8    4                                                                      
   138.079799890000       5.795189192900000E-003  0.000000000000000E+000        
  0.000000000000000E+000  0.000000000000000E+000                                
   32.2327003930000       4.162084625100000E-002  0.000000000000000E+000        
  0.000000000000000E+000  0.000000000000000E+000                                
   9.98160753600000       0.162819168850000       0.000000000000000E+000        
  0.000000000000000E+000  0.000000000000000E+000                                
   3.48220339280000       0.360117846470000       0.000000000000000E+000        
  0.000000000000000E+000  0.000000000000000E+000                                
   1.22991346200000       0.448589798890000       0.000000000000000E+000        
  0.000000000000000E+000  0.000000000000000E+000                                
  0.417439594230000       0.000000000000000E+000  0.230407595590000             
  0.000000000000000E+000  0.000000000000000E+000                                
  3.000000000000000E-002  0.000000000000000E+000  0.000000000000000E+000        
   1.00000000000000       0.000000000000000E+000                                
  9.100000000000000E-002  0.000000000000000E+000  0.000000000000000E+000        
  0.000000000000000E+000   1.00000000000000                                     
    3    3                                                                      
   2.60900000000000        1.00000000000000       0.000000000000000E+000        
  0.000000000000000E+000                                                        
  0.430000000000000       0.000000000000000E+000   1.00000000000000             
  0.000000000000000E+000                                                        
  0.100000000000000       0.000000000000000E+000  0.000000000000000E+000        
   1.00000000000000                                                             
         11.00000000    1    3    1    1    1                                   
NA#4   2.236787079410655   0.000000000000000   0.000000000000000                
   14    5                                                                      
   26041.1099270000       6.180634281100000E-004  0.000000000000000E+000        
  0.000000000000000E+000  0.000000000000000E+000  0.000000000000000E+000        
   3906.12685480000       4.774860441400000E-003  0.000000000000000E+000        
  0.000000000000000E+000  0.000000000000000E+000  0.000000000000000E+000        
   888.974549930000       2.447168482900000E-002  0.000000000000000E+000        
  0.000000000000000E+000  0.000000000000000E+000  0.000000000000000E+000        
   251.454979610000       9.475539497700000E-002  0.000000000000000E+000        
  0.000000000000000E+000  0.000000000000000E+000  0.000000000000000E+000        
   81.6501435120000       0.268674969200000       0.000000000000000E+000        
  0.000000000000000E+000  0.000000000000000E+000  0.000000000000000E+000        
   28.9041584010000       0.479254754400000       0.000000000000000E+000        
  0.000000000000000E+000  0.000000000000000E+000  0.000000000000000E+000        
   10.6257829320000       0.332485914690000       0.000000000000000E+000        
  0.000000000000000E+000  0.000000000000000E+000  0.000000000000000E+000        
   53.7694101790000       0.000000000000000E+000  1.952773187200000E-002        
  0.000000000000000E+000  0.000000000000000E+000  0.000000000000000E+000        
   16.3082430250000       0.000000000000000E+000  9.264801079399999E-002        
  0.000000000000000E+000  0.000000000000000E+000  0.000000000000000E+000        
   2.37303841250000       0.000000000000000E+000 -0.399386701720000             
  0.000000000000000E+000  0.000000000000000E+000  0.000000000000000E+000        
  0.957307726030000       0.000000000000000E+000  0.000000000000000E+000        
   1.64285953910000       0.000000000000000E+000  0.000000000000000E+000        
  0.408064609590000       0.000000000000000E+000  0.000000000000000E+000        
  0.556925969660000       0.000000000000000E+000  0.000000000000000E+000        
  4.996758232900000E-002  0.000000000000000E+000  0.000000000000000E+000        
  0.000000000000000E+000   1.00000000000000       0.000000000000000E+000        
  1.926861625000000E-002  0.000000000000000E+000  0.000000000000000E+000        
  0.000000000000000E+000  0.000000000000000E+000   1.00000000000000             
    8    4                                                                      
   138.079799890000       5.795189192900000E-003  0.000000000000000E+000        
  0.000000000000000E+000  0.000000000000000E+000                                
   32.2327003930000       4.162084625100000E-002  0.000000000000000E+000        
  0.000000000000000E+000  0.000000000000000E+000                                
   9.98160753600000       0.162819168850000       0.000000000000000E+000        
  0.000000000000000E+000  0.000000000000000E+000                                
   3.48220339280000       0.360117846470000       0.000000000000000E+000        
  0.000000000000000E+000  0.000000000000000E+000                                
   1.22991346200000       0.448589798890000       0.000000000000000E+000        
  0.000000000000000E+000  0.000000000000000E+000                                
  0.417439594230000       0.000000000000000E+000  0.230407595590000             
  0.000000000000000E+000  0.000000000000000E+000                                
  3.000000000000000E-002  0.000000000000000E+000  0.000000000000000E+000        
   1.00000000000000       0.000000000000000E+000                                
  9.100000000000000E-002  0.000000000000000E+000  0.000000000000000E+000        
  0.000000000000000E+000   1.00000000000000                                     
    3    3                                                                      
   2.60900000000000        1.00000000000000       0.000000000000000E+000        
  0.000000000000000E+000                                                        
  0.430000000000000       0.000000000000000E+000   1.00000000000000             
  0.000000000000000E+000                                                        
  0.100000000000000       0.000000000000000E+000  0.000000000000000E+000        
   1.00000000000000                                                             
FINISH                                                                          
 
********************************************************************************
 One- and two-electron integrals over symmetry-adapted AOs are calculated.

  Spherical harmonics are used.
  
   4 types of atoms
   1 symmetry operations

   Reflection in the XY-plane
  
  Integrals less than  0.10E-13 are neglected.

  Atomic type number  1 :
  -----------------------

    Nuclear charge:                       11
    number of symmetry independent atoms:  1
    highest orbital type:                  d

      1 groups of CGTOs of s type
      1 groups of CGTOs of p type
      1 groups of CGTOs of d type

    nuclear coordinates (in a.u.) are :

    NA#1       -0.447357415882131       -4.673850965962058       -3.395751441247175
  
   Basis function not normalized: 
   Center (as ordered in MOL file):   1
   Angular Momentum type          : s
   Offset within angular momentum :  1
   <chi|chi>                      :    0.9502442359
   Basis function not normalized: 
   Center (as ordered in MOL file):   1
   Angular Momentum type          : s
   Offset within angular momentum :  2
   <chi|chi>                      :    2.8051739232
   Basis function not normalized: 
   Center (as ordered in MOL file):   1
   Angular Momentum type          : s
   Offset within angular momentum :  3
   <chi|chi>                      :    0.4656380174
   Basis function not normalized: 
   Center (as ordered in MOL file):   1
   Angular Momentum type          : p
   Offset within angular momentum :  1
   <chi|chi>                      :    1.1598158564
   Basis function not normalized: 
   Center (as ordered in MOL file):   1
   Angular Momentum type          : p
   Offset within angular momentum :  2
   <chi|chi>                      :    4.3401346967
  Atomic type number  2 :
  -----------------------

    Nuclear charge:                       11
    number of symmetry independent atoms:  1
    highest orbital type:                  d

      1 groups of CGTOs of s type
      1 groups of CGTOs of p type
      1 groups of CGTOs of d type

    nuclear coordinates (in a.u.) are :

    NA#2       -0.447357415882131        1.785252234081936       -5.494441274953131
  
   Basis function not normalized: 
   Center (as ordered in MOL file):   2
   Angular Momentum type          : s
   Offset within angular momentum :  1
   <chi|chi>                      :    0.9502442359
   Basis function not normalized: 
   Center (as ordered in MOL file):   2
   Angular Momentum type          : s
   Offset within angular momentum :  2
   <chi|chi>                      :    2.8051739232
   Basis function not normalized: 
   Center (as ordered in MOL file):   2
   Angular Momentum type          : s
   Offset within angular momentum :  3
   <chi|chi>                      :    0.4656380174
   Basis function not normalized: 
   Center (as ordered in MOL file):   2
   Angular Momentum type          : p
   Offset within angular momentum :  1
   <chi|chi>                      :    1.1598158564
   Basis function not normalized: 
   Center (as ordered in MOL file):   2
   Angular Momentum type          : p
   Offset within angular momentum :  2
   <chi|chi>                      :    4.3401346967
  Atomic type number  3 :
  -----------------------

    Nuclear charge:                       11
    number of symmetry independent atoms:  1
    highest orbital type:                  d

      1 groups of CGTOs of s type
      1 groups of CGTOs of p type
      1 groups of CGTOs of d type

    nuclear coordinates (in a.u.) are :

    NA#3       -0.447357415882131        5.777197463760243        0.000000000000000
  
   Basis function not normalized: 
   Center (as ordered in MOL file):   3
   Angular Momentum type          : s
   Offset within angular momentum :  1
   <chi|chi>                      :    0.9502442359
   Basis function not normalized: 
   Center (as ordered in MOL file):   3
   Angular Momentum type          : s
   Offset within angular momentum :  2
   <chi|chi>                      :    2.8051739232
   Basis function not normalized: 
   Center (as ordered in MOL file):   3
   Angular Momentum type          : s
   Offset within angular momentum :  3
   <chi|chi>                      :    0.4656380174
   Basis function not normalized: 
   Center (as ordered in MOL file):   3
   Angular Momentum type          : p
   Offset within angular momentum :  1
   <chi|chi>                      :    1.1598158564
   Basis function not normalized: 
   Center (as ordered in MOL file):   3
   Angular Momentum type          : p
   Offset within angular momentum :  2
   <chi|chi>                      :    4.3401346967
  Atomic type number  4 :
  -----------------------

    Nuclear charge:                       11
    number of symmetry independent atoms:  1
    highest orbital type:                  d

      1 groups of CGTOs of s type
      1 groups of CGTOs of p type
      1 groups of CGTOs of d type

    nuclear coordinates (in a.u.) are :

    NA#4        2.236787079410655        0.000000000000000        0.000000000000000
  
   Basis function not normalized: 
   Center (as ordered in MOL file):   4
   Angular Momentum type          : s
   Offset within angular momentum :  1
   <chi|chi>                      :    0.9502442359
   Basis function not normalized: 
   Center (as ordered in MOL file):   4
   Angular Momentum type          : s
   Offset within angular momentum :  2
   <chi|chi>                      :    2.8051739232
   Basis function not normalized: 
   Center (as ordered in MOL file):   4
   Angular Momentum type          : s
   Offset within angular momentum :  3
   <chi|chi>                      :    0.4656380174
   Basis function not normalized: 
   Center (as ordered in MOL file):   4
   Angular Momentum type          : p
   Offset within angular momentum :  1
   <chi|chi>                      :    1.1598158564
   Basis function not normalized: 
   Center (as ordered in MOL file):   4
   Angular Momentum type          : p
   Offset within angular momentum :  2
   <chi|chi>                      :    4.3401346967
   Internuclear distances (A) :

     for atom NA#1 (coordinates :  -0.44736  -4.67385  -3.39575)

     NA#1   2     distance is  3.594
     NA#2   1     distance is  3.594
     NA#2   2     distance is  5.815
     NA#3   1     distance is  5.815
     NA#4   1     distance is  3.371

     for atom NA#2 (coordinates :  -0.44736   1.78525  -5.49444)

     NA#2   2     distance is  5.815
     NA#3   1     distance is  3.594
     NA#4   1     distance is  3.371

     for atom NA#3 (coordinates :  -0.44736   5.77720   0.00000)

     NA#4   1     distance is  3.371

     for atom NA#4 (coordinates :   2.23679   0.00000   0.00000)


   Group multiplication table :

         1   2
         2   1

   Gaussian basis information :

   atom                 exponent      coefficients

 NA#1  1    S   
+                 1   26041.109927   0.0006181   0.0000000   0.0000000   0.0000000   0.0000000
                  2    3906.126855   0.0047749   0.0000000   0.0000000   0.0000000   0.0000000
                  3     888.974550   0.0244717   0.0000000   0.0000000   0.0000000   0.0000000
                  4     251.454980   0.0947554   0.0000000   0.0000000   0.0000000   0.0000000
                  5      81.650144   0.2686750   0.0000000   0.0000000   0.0000000   0.0000000
                  6      28.904158   0.4792548   0.0000000   0.0000000   0.0000000   0.0000000
                  7      10.625783   0.3324859   0.0000000   0.0000000   0.0000000   0.0000000
                  8      53.769410   0.0000000   0.0195277   0.0000000   0.0000000   0.0000000
                  9      16.308243   0.0000000   0.0926480   0.0000000   0.0000000   0.0000000
                 10       2.373038   0.0000000  -0.3993867   0.0000000   0.0000000   0.0000000
                 11       0.957308   0.0000000   0.0000000   1.6428595   0.0000000   0.0000000
                 12       0.408065   0.0000000   0.0000000   0.5569260   0.0000000   0.0000000
                 13       0.049968   0.0000000   0.0000000   0.0000000   1.0000000   0.0000000
                 14       0.019269   0.0000000   0.0000000   0.0000000   0.0000000   1.0000000

 NA#1  2    S   
+                15   26041.109927   0.0006181   0.0000000   0.0000000   0.0000000   0.0000000
                 16    3906.126855   0.0047749   0.0000000   0.0000000   0.0000000   0.0000000
                 17     888.974550   0.0244717   0.0000000   0.0000000   0.0000000   0.0000000
                 18     251.454980   0.0947554   0.0000000   0.0000000   0.0000000   0.0000000
                 19      81.650144   0.2686750   0.0000000   0.0000000   0.0000000   0.0000000
                 20      28.904158   0.4792548   0.0000000   0.0000000   0.0000000   0.0000000
                 21      10.625783   0.3324859   0.0000000   0.0000000   0.0000000   0.0000000
                 22      53.769410   0.0000000   0.0195277   0.0000000   0.0000000   0.0000000
                 23      16.308243   0.0000000   0.0926480   0.0000000   0.0000000   0.0000000
                 24       2.373038   0.0000000  -0.3993867   0.0000000   0.0000000   0.0000000
                 25       0.957308   0.0000000   0.0000000   1.6428595   0.0000000   0.0000000
                 26       0.408065   0.0000000   0.0000000   0.5569260   0.0000000   0.0000000
                 27       0.049968   0.0000000   0.0000000   0.0000000   1.0000000   0.0000000
                 28       0.019269   0.0000000   0.0000000   0.0000000   0.0000000   1.0000000

 NA#1  1    X   
+                29     138.079800   0.0057952   0.0000000   0.0000000   0.0000000
                 30      32.232700   0.0416208   0.0000000   0.0000000   0.0000000
                 31       9.981608   0.1628192   0.0000000   0.0000000   0.0000000
                 32       3.482203   0.3601178   0.0000000   0.0000000   0.0000000
                 33       1.229913   0.4485898   0.0000000   0.0000000   0.0000000
                 34       0.417440   0.0000000   0.2304076   0.0000000   0.0000000
                 35       0.030000   0.0000000   0.0000000   1.0000000   0.0000000
                 36       0.091000   0.0000000   0.0000000   0.0000000   1.0000000

 NA#1  2    X   
+                37     138.079800   0.0057952   0.0000000   0.0000000   0.0000000
                 38      32.232700   0.0416208   0.0000000   0.0000000   0.0000000
                 39       9.981608   0.1628192   0.0000000   0.0000000   0.0000000
                 40       3.482203   0.3601178   0.0000000   0.0000000   0.0000000
                 41       1.229913   0.4485898   0.0000000   0.0000000   0.0000000
                 42       0.417440   0.0000000   0.2304076   0.0000000   0.0000000
                 43       0.030000   0.0000000   0.0000000   1.0000000   0.0000000
                 44       0.091000   0.0000000   0.0000000   0.0000000   1.0000000

 NA#1  1    Y   
+                45     138.079800   0.0057952   0.0000000   0.0000000   0.0000000
                 46      32.232700   0.0416208   0.0000000   0.0000000   0.0000000
                 47       9.981608   0.1628192   0.0000000   0.0000000   0.0000000
                 48       3.482203   0.3601178   0.0000000   0.0000000   0.0000000
                 49       1.229913   0.4485898   0.0000000   0.0000000   0.0000000
                 50       0.417440   0.0000000   0.2304076   0.0000000   0.0000000
                 51       0.030000   0.0000000   0.0000000   1.0000000   0.0000000
                 52       0.091000   0.0000000   0.0000000   0.0000000   1.0000000

 NA#1  2    Y   
+                53     138.079800   0.0057952   0.0000000   0.0000000   0.0000000
                 54      32.232700   0.0416208   0.0000000   0.0000000   0.0000000
                 55       9.981608   0.1628192   0.0000000   0.0000000   0.0000000
                 56       3.482203   0.3601178   0.0000000   0.0000000   0.0000000
                 57       1.229913   0.4485898   0.0000000   0.0000000   0.0000000
                 58       0.417440   0.0000000   0.2304076   0.0000000   0.0000000
                 59       0.030000   0.0000000   0.0000000   1.0000000   0.0000000
                 60       0.091000   0.0000000   0.0000000   0.0000000   1.0000000

 NA#1  1    Z   
+                61     138.079800   0.0057952   0.0000000   0.0000000   0.0000000
                 62      32.232700   0.0416208   0.0000000   0.0000000   0.0000000
                 63       9.981608   0.1628192   0.0000000   0.0000000   0.0000000
                 64       3.482203   0.3601178   0.0000000   0.0000000   0.0000000
                 65       1.229913   0.4485898   0.0000000   0.0000000   0.0000000
                 66       0.417440   0.0000000   0.2304076   0.0000000   0.0000000
                 67       0.030000   0.0000000   0.0000000   1.0000000   0.0000000
                 68       0.091000   0.0000000   0.0000000   0.0000000   1.0000000

 NA#1  2    Z   
+                69     138.079800   0.0057952   0.0000000   0.0000000   0.0000000
                 70      32.232700   0.0416208   0.0000000   0.0000000   0.0000000
                 71       9.981608   0.1628192   0.0000000   0.0000000   0.0000000
                 72       3.482203   0.3601178   0.0000000   0.0000000   0.0000000
                 73       1.229913   0.4485898   0.0000000   0.0000000   0.0000000
                 74       0.417440   0.0000000   0.2304076   0.0000000   0.0000000
                 75       0.030000   0.0000000   0.0000000   1.0000000   0.0000000
                 76       0.091000   0.0000000   0.0000000   0.0000000   1.0000000

 NA#1  1    XX  
+                77       2.609000   1.0000000   0.0000000   0.0000000
                 78       0.430000   0.0000000   1.0000000   0.0000000
                 79       0.100000   0.0000000   0.0000000   1.0000000

 NA#1  2    XX  
+                80       2.609000   1.0000000   0.0000000   0.0000000
                 81       0.430000   0.0000000   1.0000000   0.0000000
                 82       0.100000   0.0000000   0.0000000   1.0000000

 NA#1  1    XY  
+                83       2.609000   1.0000000   0.0000000   0.0000000
                 84       0.430000   0.0000000   1.0000000   0.0000000
                 85       0.100000   0.0000000   0.0000000   1.0000000

 NA#1  2    XY  
+                86       2.609000   1.0000000   0.0000000   0.0000000
                 87       0.430000   0.0000000   1.0000000   0.0000000
                 88       0.100000   0.0000000   0.0000000   1.0000000

 NA#1  1    XZ  
+                89       2.609000   1.0000000   0.0000000   0.0000000
                 90       0.430000   0.0000000   1.0000000   0.0000000
                 91       0.100000   0.0000000   0.0000000   1.0000000

 NA#1  2    XZ  
+                92       2.609000   1.0000000   0.0000000   0.0000000
                 93       0.430000   0.0000000   1.0000000   0.0000000
                 94       0.100000   0.0000000   0.0000000   1.0000000

 NA#1  1    YY  
+                95       2.609000   1.0000000   0.0000000   0.0000000
                 96       0.430000   0.0000000   1.0000000   0.0000000
                 97       0.100000   0.0000000   0.0000000   1.0000000

 NA#1  2    YY  
+                98       2.609000   1.0000000   0.0000000   0.0000000
                 99       0.430000   0.0000000   1.0000000   0.0000000
                100       0.100000   0.0000000   0.0000000   1.0000000

 NA#1  1    YZ  
+               101       2.609000   1.0000000   0.0000000   0.0000000
                102       0.430000   0.0000000   1.0000000   0.0000000
                103       0.100000   0.0000000   0.0000000   1.0000000

 NA#1  2    YZ  
+               104       2.609000   1.0000000   0.0000000   0.0000000
                105       0.430000   0.0000000   1.0000000   0.0000000
                106       0.100000   0.0000000   0.0000000   1.0000000

 NA#1  1    ZZ  
+               107       2.609000   1.0000000   0.0000000   0.0000000
                108       0.430000   0.0000000   1.0000000   0.0000000
                109       0.100000   0.0000000   0.0000000   1.0000000

 NA#1  2    ZZ  
+               110       2.609000   1.0000000   0.0000000   0.0000000
                111       0.430000   0.0000000   1.0000000   0.0000000
                112       0.100000   0.0000000   0.0000000   1.0000000

 NA#2  1    S   
+               113   26041.109927   0.0006181   0.0000000   0.0000000   0.0000000   0.0000000
                114    3906.126855   0.0047749   0.0000000   0.0000000   0.0000000   0.0000000
                115     888.974550   0.0244717   0.0000000   0.0000000   0.0000000   0.0000000
                116     251.454980   0.0947554   0.0000000   0.0000000   0.0000000   0.0000000
                117      81.650144   0.2686750   0.0000000   0.0000000   0.0000000   0.0000000
                118      28.904158   0.4792548   0.0000000   0.0000000   0.0000000   0.0000000
                119      10.625783   0.3324859   0.0000000   0.0000000   0.0000000   0.0000000
                120      53.769410   0.0000000   0.0195277   0.0000000   0.0000000   0.0000000
                121      16.308243   0.0000000   0.0926480   0.0000000   0.0000000   0.0000000
                122       2.373038   0.0000000  -0.3993867   0.0000000   0.0000000   0.0000000
                123       0.957308   0.0000000   0.0000000   1.6428595   0.0000000   0.0000000
                124       0.408065   0.0000000   0.0000000   0.5569260   0.0000000   0.0000000
                125       0.049968   0.0000000   0.0000000   0.0000000   1.0000000   0.0000000
                126       0.019269   0.0000000   0.0000000   0.0000000   0.0000000   1.0000000

 NA#2  2    S   
+               127   26041.109927   0.0006181   0.0000000   0.0000000   0.0000000   0.0000000
                128    3906.126855   0.0047749   0.0000000   0.0000000   0.0000000   0.0000000
                129     888.974550   0.0244717   0.0000000   0.0000000   0.0000000   0.0000000
                130     251.454980   0.0947554   0.0000000   0.0000000   0.0000000   0.0000000
                131      81.650144   0.2686750   0.0000000   0.0000000   0.0000000   0.0000000
                132      28.904158   0.4792548   0.0000000   0.0000000   0.0000000   0.0000000
                133      10.625783   0.3324859   0.0000000   0.0000000   0.0000000   0.0000000
                134      53.769410   0.0000000   0.0195277   0.0000000   0.0000000   0.0000000
                135      16.308243   0.0000000   0.0926480   0.0000000   0.0000000   0.0000000
                136       2.373038   0.0000000  -0.3993867   0.0000000   0.0000000   0.0000000
                137       0.957308   0.0000000   0.0000000   1.6428595   0.0000000   0.0000000
                138       0.408065   0.0000000   0.0000000   0.5569260   0.0000000   0.0000000
                139       0.049968   0.0000000   0.0000000   0.0000000   1.0000000   0.0000000
                140       0.019269   0.0000000   0.0000000   0.0000000   0.0000000   1.0000000

 NA#2  1    X   
+               141     138.079800   0.0057952   0.0000000   0.0000000   0.0000000
                142      32.232700   0.0416208   0.0000000   0.0000000   0.0000000
                143       9.981608   0.1628192   0.0000000   0.0000000   0.0000000
                144       3.482203   0.3601178   0.0000000   0.0000000   0.0000000
                145       1.229913   0.4485898   0.0000000   0.0000000   0.0000000
                146       0.417440   0.0000000   0.2304076   0.0000000   0.0000000
                147       0.030000   0.0000000   0.0000000   1.0000000   0.0000000
                148       0.091000   0.0000000   0.0000000   0.0000000   1.0000000

 NA#2  2    X   
+               149     138.079800   0.0057952   0.0000000   0.0000000   0.0000000
                150      32.232700   0.0416208   0.0000000   0.0000000   0.0000000
                151       9.981608   0.1628192   0.0000000   0.0000000   0.0000000
                152       3.482203   0.3601178   0.0000000   0.0000000   0.0000000
                153       1.229913   0.4485898   0.0000000   0.0000000   0.0000000
                154       0.417440   0.0000000   0.2304076   0.0000000   0.0000000
                155       0.030000   0.0000000   0.0000000   1.0000000   0.0000000
                156       0.091000   0.0000000   0.0000000   0.0000000   1.0000000

 NA#2  1    Y   
+               157     138.079800   0.0057952   0.0000000   0.0000000   0.0000000
                158      32.232700   0.0416208   0.0000000   0.0000000   0.0000000
                159       9.981608   0.1628192   0.0000000   0.0000000   0.0000000
                160       3.482203   0.3601178   0.0000000   0.0000000   0.0000000
                161       1.229913   0.4485898   0.0000000   0.0000000   0.0000000
                162       0.417440   0.0000000   0.2304076   0.0000000   0.0000000
                163       0.030000   0.0000000   0.0000000   1.0000000   0.0000000
                164       0.091000   0.0000000   0.0000000   0.0000000   1.0000000

 NA#2  2    Y   
+               165     138.079800   0.0057952   0.0000000   0.0000000   0.0000000
                166      32.232700   0.0416208   0.0000000   0.0000000   0.0000000
                167       9.981608   0.1628192   0.0000000   0.0000000   0.0000000
                168       3.482203   0.3601178   0.0000000   0.0000000   0.0000000
                169       1.229913   0.4485898   0.0000000   0.0000000   0.0000000
                170       0.417440   0.0000000   0.2304076   0.0000000   0.0000000
                171       0.030000   0.0000000   0.0000000   1.0000000   0.0000000
                172       0.091000   0.0000000   0.0000000   0.0000000   1.0000000

 NA#2  1    Z   
+               173     138.079800   0.0057952   0.0000000   0.0000000   0.0000000
                174      32.232700   0.0416208   0.0000000   0.0000000   0.0000000
                175       9.981608   0.1628192   0.0000000   0.0000000   0.0000000
                176       3.482203   0.3601178   0.0000000   0.0000000   0.0000000
                177       1.229913   0.4485898   0.0000000   0.0000000   0.0000000
                178       0.417440   0.0000000   0.2304076   0.0000000   0.0000000
                179       0.030000   0.0000000   0.0000000   1.0000000   0.0000000
                180       0.091000   0.0000000   0.0000000   0.0000000   1.0000000

 NA#2  2    Z   
+               181     138.079800   0.0057952   0.0000000   0.0000000   0.0000000
                182      32.232700   0.0416208   0.0000000   0.0000000   0.0000000
                183       9.981608   0.1628192   0.0000000   0.0000000   0.0000000
                184       3.482203   0.3601178   0.0000000   0.0000000   0.0000000
                185       1.229913   0.4485898   0.0000000   0.0000000   0.0000000
                186       0.417440   0.0000000   0.2304076   0.0000000   0.0000000
                187       0.030000   0.0000000   0.0000000   1.0000000   0.0000000
                188       0.091000   0.0000000   0.0000000   0.0000000   1.0000000

 NA#2  1    XX  
+               189       2.609000   1.0000000   0.0000000   0.0000000
                190       0.430000   0.0000000   1.0000000   0.0000000
                191       0.100000   0.0000000   0.0000000   1.0000000

 NA#2  2    XX  
+               192       2.609000   1.0000000   0.0000000   0.0000000
                193       0.430000   0.0000000   1.0000000   0.0000000
                194       0.100000   0.0000000   0.0000000   1.0000000

 NA#2  1    XY  
+               195       2.609000   1.0000000   0.0000000   0.0000000
                196       0.430000   0.0000000   1.0000000   0.0000000
                197       0.100000   0.0000000   0.0000000   1.0000000

 NA#2  2    XY  
+               198       2.609000   1.0000000   0.0000000   0.0000000
                199       0.430000   0.0000000   1.0000000   0.0000000
                200       0.100000   0.0000000   0.0000000   1.0000000

 NA#2  1    XZ  
+               201       2.609000   1.0000000   0.0000000   0.0000000
                202       0.430000   0.0000000   1.0000000   0.0000000
                203       0.100000   0.0000000   0.0000000   1.0000000

 NA#2  2    XZ  
+               204       2.609000   1.0000000   0.0000000   0.0000000
                205       0.430000   0.0000000   1.0000000   0.0000000
                206       0.100000   0.0000000   0.0000000   1.0000000

 NA#2  1    YY  
+               207       2.609000   1.0000000   0.0000000   0.0000000
                208       0.430000   0.0000000   1.0000000   0.0000000
                209       0.100000   0.0000000   0.0000000   1.0000000

 NA#2  2    YY  
+               210       2.609000   1.0000000   0.0000000   0.0000000
                211       0.430000   0.0000000   1.0000000   0.0000000
                212       0.100000   0.0000000   0.0000000   1.0000000

 NA#2  1    YZ  
+               213       2.609000   1.0000000   0.0000000   0.0000000
                214       0.430000   0.0000000   1.0000000   0.0000000
                215       0.100000   0.0000000   0.0000000   1.0000000

 NA#2  2    YZ  
+               216       2.609000   1.0000000   0.0000000   0.0000000
                217       0.430000   0.0000000   1.0000000   0.0000000
                218       0.100000   0.0000000   0.0000000   1.0000000

 NA#2  1    ZZ  
+               219       2.609000   1.0000000   0.0000000   0.0000000
                220       0.430000   0.0000000   1.0000000   0.0000000
                221       0.100000   0.0000000   0.0000000   1.0000000

 NA#2  2    ZZ  
+               222       2.609000   1.0000000   0.0000000   0.0000000
                223       0.430000   0.0000000   1.0000000   0.0000000
                224       0.100000   0.0000000   0.0000000   1.0000000

 NA#3  1    S   
+               225   26041.109927   0.0006181   0.0000000   0.0000000   0.0000000   0.0000000
                226    3906.126855   0.0047749   0.0000000   0.0000000   0.0000000   0.0000000
                227     888.974550   0.0244717   0.0000000   0.0000000   0.0000000   0.0000000
                228     251.454980   0.0947554   0.0000000   0.0000000   0.0000000   0.0000000
                229      81.650144   0.2686750   0.0000000   0.0000000   0.0000000   0.0000000
                230      28.904158   0.4792548   0.0000000   0.0000000   0.0000000   0.0000000
                231      10.625783   0.3324859   0.0000000   0.0000000   0.0000000   0.0000000
                232      53.769410   0.0000000   0.0195277   0.0000000   0.0000000   0.0000000
                233      16.308243   0.0000000   0.0926480   0.0000000   0.0000000   0.0000000
                234       2.373038   0.0000000  -0.3993867   0.0000000   0.0000000   0.0000000
                235       0.957308   0.0000000   0.0000000   1.6428595   0.0000000   0.0000000
                236       0.408065   0.0000000   0.0000000   0.5569260   0.0000000   0.0000000
                237       0.049968   0.0000000   0.0000000   0.0000000   1.0000000   0.0000000
                238       0.019269   0.0000000   0.0000000   0.0000000   0.0000000   1.0000000

 NA#3  1    X   
+               239     138.079800   0.0057952   0.0000000   0.0000000   0.0000000
                240      32.232700   0.0416208   0.0000000   0.0000000   0.0000000
                241       9.981608   0.1628192   0.0000000   0.0000000   0.0000000
                242       3.482203   0.3601178   0.0000000   0.0000000   0.0000000
                243       1.229913   0.4485898   0.0000000   0.0000000   0.0000000
                244       0.417440   0.0000000   0.2304076   0.0000000   0.0000000
                245       0.030000   0.0000000   0.0000000   1.0000000   0.0000000
                246       0.091000   0.0000000   0.0000000   0.0000000   1.0000000

 NA#3  1    Y   
+               247     138.079800   0.0057952   0.0000000   0.0000000   0.0000000
                248      32.232700   0.0416208   0.0000000   0.0000000   0.0000000
                249       9.981608   0.1628192   0.0000000   0.0000000   0.0000000
                250       3.482203   0.3601178   0.0000000   0.0000000   0.0000000
                251       1.229913   0.4485898   0.0000000   0.0000000   0.0000000
                252       0.417440   0.0000000   0.2304076   0.0000000   0.0000000
                253       0.030000   0.0000000   0.0000000   1.0000000   0.0000000
                254       0.091000   0.0000000   0.0000000   0.0000000   1.0000000

 NA#3  1    Z   
+               255     138.079800   0.0057952   0.0000000   0.0000000   0.0000000
                256      32.232700   0.0416208   0.0000000   0.0000000   0.0000000
                257       9.981608   0.1628192   0.0000000   0.0000000   0.0000000
                258       3.482203   0.3601178   0.0000000   0.0000000   0.0000000
                259       1.229913   0.4485898   0.0000000   0.0000000   0.0000000
                260       0.417440   0.0000000   0.2304076   0.0000000   0.0000000
                261       0.030000   0.0000000   0.0000000   1.0000000   0.0000000
                262       0.091000   0.0000000   0.0000000   0.0000000   1.0000000

 NA#3  1    XX  
+               263       2.609000   1.0000000   0.0000000   0.0000000
                264       0.430000   0.0000000   1.0000000   0.0000000
                265       0.100000   0.0000000   0.0000000   1.0000000

 NA#3  1    XY  
+               266       2.609000   1.0000000   0.0000000   0.0000000
                267       0.430000   0.0000000   1.0000000   0.0000000
                268       0.100000   0.0000000   0.0000000   1.0000000

 NA#3  1    XZ  
+               269       2.609000   1.0000000   0.0000000   0.0000000
                270       0.430000   0.0000000   1.0000000   0.0000000
                271       0.100000   0.0000000   0.0000000   1.0000000

 NA#3  1    YY  
+               272       2.609000   1.0000000   0.0000000   0.0000000
                273       0.430000   0.0000000   1.0000000   0.0000000
                274       0.100000   0.0000000   0.0000000   1.0000000

 NA#3  1    YZ  
+               275       2.609000   1.0000000   0.0000000   0.0000000
                276       0.430000   0.0000000   1.0000000   0.0000000
                277       0.100000   0.0000000   0.0000000   1.0000000

 NA#3  1    ZZ  
+               278       2.609000   1.0000000   0.0000000   0.0000000
                279       0.430000   0.0000000   1.0000000   0.0000000
                280       0.100000   0.0000000   0.0000000   1.0000000

 NA#4  1    S   
+               281   26041.109927   0.0006181   0.0000000   0.0000000   0.0000000   0.0000000
                282    3906.126855   0.0047749   0.0000000   0.0000000   0.0000000   0.0000000
                283     888.974550   0.0244717   0.0000000   0.0000000   0.0000000   0.0000000
                284     251.454980   0.0947554   0.0000000   0.0000000   0.0000000   0.0000000
                285      81.650144   0.2686750   0.0000000   0.0000000   0.0000000   0.0000000
                286      28.904158   0.4792548   0.0000000   0.0000000   0.0000000   0.0000000
                287      10.625783   0.3324859   0.0000000   0.0000000   0.0000000   0.0000000
                288      53.769410   0.0000000   0.0195277   0.0000000   0.0000000   0.0000000
                289      16.308243   0.0000000   0.0926480   0.0000000   0.0000000   0.0000000
                290       2.373038   0.0000000  -0.3993867   0.0000000   0.0000000   0.0000000
                291       0.957308   0.0000000   0.0000000   1.6428595   0.0000000   0.0000000
                292       0.408065   0.0000000   0.0000000   0.5569260   0.0000000   0.0000000
                293       0.049968   0.0000000   0.0000000   0.0000000   1.0000000   0.0000000
                294       0.019269   0.0000000   0.0000000   0.0000000   0.0000000   1.0000000

 NA#4  1    X   
+               295     138.079800   0.0057952   0.0000000   0.0000000   0.0000000
                296      32.232700   0.0416208   0.0000000   0.0000000   0.0000000
                297       9.981608   0.1628192   0.0000000   0.0000000   0.0000000
                298       3.482203   0.3601178   0.0000000   0.0000000   0.0000000
                299       1.229913   0.4485898   0.0000000   0.0000000   0.0000000
                300       0.417440   0.0000000   0.2304076   0.0000000   0.0000000
                301       0.030000   0.0000000   0.0000000   1.0000000   0.0000000
                302       0.091000   0.0000000   0.0000000   0.0000000   1.0000000

 NA#4  1    Y   
+               303     138.079800   0.0057952   0.0000000   0.0000000   0.0000000
                304      32.232700   0.0416208   0.0000000   0.0000000   0.0000000
                305       9.981608   0.1628192   0.0000000   0.0000000   0.0000000
                306       3.482203   0.3601178   0.0000000   0.0000000   0.0000000
                307       1.229913   0.4485898   0.0000000   0.0000000   0.0000000
                308       0.417440   0.0000000   0.2304076   0.0000000   0.0000000
                309       0.030000   0.0000000   0.0000000   1.0000000   0.0000000
                310       0.091000   0.0000000   0.0000000   0.0000000   1.0000000

 NA#4  1    Z   
+               311     138.079800   0.0057952   0.0000000   0.0000000   0.0000000
                312      32.232700   0.0416208   0.0000000   0.0000000   0.0000000
                313       9.981608   0.1628192   0.0000000   0.0000000   0.0000000
                314       3.482203   0.3601178   0.0000000   0.0000000   0.0000000
                315       1.229913   0.4485898   0.0000000   0.0000000   0.0000000
                316       0.417440   0.0000000   0.2304076   0.0000000   0.0000000
                317       0.030000   0.0000000   0.0000000   1.0000000   0.0000000
                318       0.091000   0.0000000   0.0000000   0.0000000   1.0000000

 NA#4  1    XX  
+               319       2.609000   1.0000000   0.0000000   0.0000000
                320       0.430000   0.0000000   1.0000000   0.0000000
                321       0.100000   0.0000000   0.0000000   1.0000000

 NA#4  1    XY  
+               322       2.609000   1.0000000   0.0000000   0.0000000
                323       0.430000   0.0000000   1.0000000   0.0000000
                324       0.100000   0.0000000   0.0000000   1.0000000

 NA#4  1    XZ  
+               325       2.609000   1.0000000   0.0000000   0.0000000
                326       0.430000   0.0000000   1.0000000   0.0000000
                327       0.100000   0.0000000   0.0000000   1.0000000

 NA#4  1    YY  
+               328       2.609000   1.0000000   0.0000000   0.0000000
                329       0.430000   0.0000000   1.0000000   0.0000000
                330       0.100000   0.0000000   0.0000000   1.0000000

 NA#4  1    YZ  
+               331       2.609000   1.0000000   0.0000000   0.0000000
                332       0.430000   0.0000000   1.0000000   0.0000000
                333       0.100000   0.0000000   0.0000000   1.0000000

 NA#4  1    ZZ  
+               334       2.609000   1.0000000   0.0000000   0.0000000
                335       0.430000   0.0000000   1.0000000   0.0000000
                336       0.100000   0.0000000   0.0000000   1.0000000
210192
  1  2  3  4  5  6  7  8  9 10 11 12 13 14 15 16 17 18 19 20 21 22 23 24 25
 26 27 28 29 30 31 32********* 33 34 35 36 37 38 39 40 41 42 43 44 45 46 47
 48 49 50 51 52 53 54 55 56 57 58 59 60 61 62 63 64********* 65 66 67 68 69
[...]
 [   5]-0.0787617153
  Convergence information after    16 iterations: 
  Largest element of residual vector : -0.21524065E-06.
  Largest element of DIIS residual   : -0.17959663E-06.
  W(mnij) AB contribution =  0.1477189955 a.u.
  W(abef) AB contribution =  0.1396024890 a.u.
  W(mbej) AB contribution = -0.3837794124 a.u.
   After  17 iterations, amplitude changes are:
    -------------------------------------------------------------------
                 Spin      RMS          Max.      Max. change for
     Amplitude   Case     Change       Change       i    j    a    b
    -------------------------------------------------------------------
        T1        AA    0.0000000001-0.0000001425   15        28
        T2        AA    0.0000000000-0.0000000113   27   16  117   31
        T2        AB    0.0000000000-0.0000000322   16   27  116   28
    -------------------------------------------------------------------
   The AA contribution to the correlation energy is:   -0.1421692 a.u.
   The AB contribution to the correlation energy is:   -0.8307757 a.u.
   The total correlation energy is -1.115114180712 a.u.
   The total correlation energy is -1.115114180712 a.u.
  Current DIIS expansion coefficients : 
 [   1]-0.0747769726 [   2] 1.2722504108 [   3] 0.0237175657 [   4] 0.0142127831
 [   5]-0.2354037870
  Convergence information after    17 iterations: 
  Largest element of residual vector : -0.14248807E-06.
  Largest element of DIIS residual   : -0.11884541E-06.
  W(mnij) AB contribution =  0.1477189870 a.u.
  W(abef) AB contribution =  0.1396024787 a.u.
  W(mbej) AB contribution = -0.3837793786 a.u.
   After  18 iterations, amplitude changes are:
    -------------------------------------------------------------------
                 Spin      RMS          Max.      Max. change for
     Amplitude   Case     Change       Change       i    j    a    b
    -------------------------------------------------------------------
        T1        AA    0.0000000000-0.0000000691   15        28
        T2        AA    0.0000000000-0.0000000085   27   16  117   31
        T2        AB    0.0000000000-0.0000000192   16   16   29   28
    -------------------------------------------------------------------
   The AA contribution to the correlation energy is:   -0.1421692 a.u.
   The AB contribution to the correlation energy is:   -0.8307757 a.u.
   The total correlation energy is -1.115114180982 a.u.
   The total correlation energy is -1.115114180982 a.u.
  Current DIIS expansion coefficients : 
 [   1]-0.2987378032 [   2] 0.0685190143 [   3] 1.1835673610 [   4] 0.0191734732
 [   5] 0.0274779547
  Convergence information after    18 iterations: 
  Largest element of residual vector : -0.69124894E-07.
  Largest element of DIIS residual   : -0.45393053E-07.
  W(mnij) AB contribution =  0.1477189861 a.u.
  W(abef) AB contribution =  0.1396024793 a.u.
  W(mbej) AB contribution = -0.3837793758 a.u.
   After  19 iterations, amplitude changes are:
    -------------------------------------------------------------------
                 Spin      RMS          Max.      Max. change for
     Amplitude   Case     Change       Change       i    j    a    b
    -------------------------------------------------------------------
        T1        AA    0.0000000000-0.0000000352   15        28
        T2        AA    0.0000000000-0.0000000036   27   16  117   31
        T2        AB    0.0000000000-0.0000000110   27   27   30   30
    -------------------------------------------------------------------
   The AA contribution to the correlation energy is:   -0.1421692 a.u.
   The AB contribution to the correlation energy is:   -0.8307757 a.u.
   The total correlation energy is -1.115114180637 a.u.
   The total correlation energy is -1.115114180637 a.u.
  Current DIIS expansion coefficients : 
 [   1] 0.0002790699 [   2]-0.1416492549 [   3]-0.2216158780 [   4] 1.3338356503
 [   5] 0.0291504127
  Convergence information after    19 iterations: 
  Largest element of residual vector : -0.35184627E-07.
  Largest element of DIIS residual   : -0.20480406E-07.
  W(mnij) AB contribution =  0.1477189862 a.u.
  W(abef) AB contribution =  0.1396024804 a.u.
  W(mbej) AB contribution = -0.3837793782 a.u.
   After  20 iterations, amplitude changes are:
    -------------------------------------------------------------------
                 Spin      RMS          Max.      Max. change for
     Amplitude   Case     Change       Change       i    j    a    b
    -------------------------------------------------------------------
        T1        AA    0.0000000000-0.0000000118   15        28
        T2        AA    0.0000000000 0.0000000016   27   16  118   32
        T2        AB    0.0000000000-0.0000000064   27   27   30   30
    -------------------------------------------------------------------
   The AA contribution to the correlation energy is:   -0.1421692 a.u.
   The AB contribution to the correlation energy is:   -0.8307757 a.u.
   The total correlation energy is -1.115114181160 a.u.
   The total correlation energy is -1.115114181160 a.u.
  Current DIIS expansion coefficients : 
 [   1] 0.0113281587 [   2] 0.0537667865 [   3]-0.1711875040 [   4]-0.2216833145
 [   5] 1.3277758733
  Convergence information after    20 iterations: 
  Largest element of residual vector : -0.11775391E-07.
  Largest element of DIIS residual   : -0.61013235E-08.
   Largest T1 amplitudes for spin case AA:
   i       a                 i       a                 i       a    
-----------------------------------------------------------------------------
[ 15      30    ] 0.02855 [ 15      28    ]-0.02156 [ 27     118    ] 0.02121
[ 16      32    ] 0.02121 [ 27     124    ] 0.01364 [ 16      41    ] 0.01364
[ 16      37    ] 0.01094 [ 27     121    ] 0.01094 [ 27     117    ] 0.00986
[ 16      31    ] 0.00986 [ 15      42    ]-0.00813 [ 15      40    ] 0.00738
[ 16      39    ] 0.00641 [ 27     123    ] 0.00641 [ 10      86    ] 0.00636
-----------------------------------------------------------------------------
   Norm of T1AA vector (     2189 symmetry allowed elements):  0.0728793244.
-----------------------------------------------------------------------------
   Largest T2 amplitudes for spin case AB:
       _       _                 _       _                 _       _
   i   j   a   b             i   j   a   b             i   j   a   b
-----------------------------------------------------------------------------
[ 27  27  29  29]-0.07295 [ 27  27 116 116]-0.07295 [ 16  16 116 116]-0.07295
[ 16  16  29  29]-0.07295 [ 16  16  31  31]-0.04697 [ 27  27 117 117]-0.04697
[ 16  16  28  28]-0.04639 [ 27  27  28  28]-0.04639 [ 15  15  28  28]-0.04205
[ 15  15  30  30]-0.04168 [ 16  15  31  28] 0.03955 [ 15  16  28  31] 0.03955
[ 27  15 117  28] 0.03955 [ 15  27  28 117] 0.03955 [ 27  27  30  30]-0.03619
-----------------------------------------------------------------------------
   Norm of T2AB vector (  9218537 symmetry allowed elements):  0.5496123307.
-----------------------------------------------------------------------------
  W(mnij) AB contribution =  0.1477189873 a.u.
  W(abef) AB contribution =  0.1396024816 a.u.
  W(mbej) AB contribution = -0.3837793829 a.u.
   After  21 iterations, amplitude changes are:
    -------------------------------------------------------------------
                 Spin      RMS          Max.      Max. change for
     Amplitude   Case     Change       Change       i    j    a    b
    -------------------------------------------------------------------
        T1        AA    0.0000000000-0.0000000051   15        28
        T2        AA    0.0000000000 0.0000000007   27   16  116   29
        T2        AB    0.0000000000-0.0000000028   27   27   28   28
    -------------------------------------------------------------------
   The AA contribution to the correlation energy is:   -0.1421692 a.u.
   The AB contribution to the correlation energy is:   -0.8307757 a.u.
   The total correlation energy is -1.115114181642 a.u.
   The total correlation energy is -1.115114181642 a.u.
  Current DIIS expansion coefficients : 
 [   1] 1.3021983998 [   2] 0.0087096617 [   3] 0.0215110151 [   4]-0.1183977181
 [   5]-0.2140213585
  Convergence information after    21 iterations: 
  Largest element of residual vector : -0.51312016E-08.
  Largest element of DIIS residual   : -0.31220222E-08.
  W(mnij) AB contribution =  0.1477189880 a.u.
  W(abef) AB contribution =  0.1396024824 a.u.
  W(mbej) AB contribution = -0.3837793858 a.u.
   After  22 iterations, amplitude changes are:
    -------------------------------------------------------------------
                 Spin      RMS          Max.      Max. change for
     Amplitude   Case     Change       Change       i    j    a    b
    -------------------------------------------------------------------
        T1        AA    0.0000000000-0.0000000019   15        28
        T2        AA    0.0000000000 0.0000000003   27   16  116   29
        T2        AB    0.0000000000-0.0000000017   27   27   28   28
    -------------------------------------------------------------------
   The AA contribution to the correlation energy is:   -0.1421692 a.u.
   The AB contribution to the correlation energy is:   -0.8307757 a.u.
   The total correlation energy is -1.115114181811 a.u.
   The total correlation energy is -1.115114181811 a.u.
  Current DIIS expansion coefficients : 
 [   1]-0.1761620086 [   2] 1.2508195298 [   3]-0.0011124564 [   4] 0.0529791441
 [   5]-0.1265242088
  Convergence information after    22 iterations: 
  Largest element of residual vector : -0.19312778E-08.
  Largest element of DIIS residual   : -0.18090382E-08.
  W(mnij) AB contribution =  0.1477189882 a.u.
  W(abef) AB contribution =  0.1396024825 a.u.
  W(mbej) AB contribution = -0.3837793866 a.u.
   After  23 iterations, amplitude changes are:
    -------------------------------------------------------------------
                 Spin      RMS          Max.      Max. change for
     Amplitude   Case     Change       Change       i    j    a    b
    -------------------------------------------------------------------
        T1        AA    0.0000000000-0.0000000012   15        28
        T2        AA    0.0000000000 0.0000000002   16   15   31   28
        T2        AB    0.0000000000-0.0000000010   27   27   28   28
    -------------------------------------------------------------------
   The AA contribution to the correlation energy is:   -0.1421692 a.u.
   The AB contribution to the correlation energy is:   -0.8307757 a.u.
   The total correlation energy is -1.115114181919 a.u.
   The total correlation energy is -1.115114181919 a.u.
  Current DIIS expansion coefficients : 
 [   1]-0.2540427303 [   2] 0.0081968489 [   3] 1.1947292197 [   4] 0.0065001824
 [   5] 0.0446164793
  Convergence information after    23 iterations: 
  Largest element of residual vector : -0.12066881E-08.
  Largest element of DIIS residual   : -0.90803445E-09.
  W(mnij) AB contribution =  0.1477189883 a.u.
  W(abef) AB contribution =  0.1396024826 a.u.
  W(mbej) AB contribution = -0.3837793871 a.u.
   After  24 iterations, amplitude changes are:
    -------------------------------------------------------------------
                 Spin      RMS          Max.      Max. change for
     Amplitude   Case     Change       Change       i    j    a    b
    -------------------------------------------------------------------
        T1        AA    0.0000000000-0.0000000009   15        28
        T2        AA    0.0000000000 0.0000000001   16   15   31   28
        T2        AB    0.0000000000 0.0000000004   27   27   30   30
    -------------------------------------------------------------------
   The AA contribution to the correlation energy is:   -0.1421692 a.u.
   The AB contribution to the correlation energy is:   -0.8307757 a.u.
   The total correlation energy is -1.115114181923 a.u.
   The total correlation energy is -1.115114181923 a.u.
  Current DIIS expansion coefficients : 
 [   1]-0.0184382518 [   2]-0.1679282253 [   3] 0.0501018879 [   4] 1.1100684479
 [   5] 0.0261961412
  Convergence information after    24 iterations: 
  Largest element of residual vector : -0.88846356E-09.
  Largest element of DIIS residual   : -0.93625608E-09.
  Amplitude equations converged in    24iterations.
   The AA contribution to the correlation energy is:   -0.1421692 a.u.
   The AB contribution to the correlation energy is:   -0.8307757 a.u.
   The total correlation energy is -1.115114181927 a.u.
   The total correlation energy is -1.115114181927 a.u.
   The CC iterations have converged.

   Largest T1 amplitudes for spin case AA:
   i       a                 i       a                 i       a    
-----------------------------------------------------------------------------
[ 15      30    ] 0.02855 [ 15      28    ]-0.02156 [ 27     118    ] 0.02121
[ 16      32    ] 0.02121 [ 27     124    ] 0.01364 [ 16      41    ] 0.01364
[ 16      37    ] 0.01094 [ 27     121    ] 0.01094 [ 27     117    ] 0.00986
[ 16      31    ] 0.00986 [ 15      42    ]-0.00813 [ 15      40    ] 0.00738
[ 16      39    ] 0.00641 [ 27     123    ] 0.00641 [ 10      86    ] 0.00636
-----------------------------------------------------------------------------
   Norm of T1AA vector (     2189 symmetry allowed elements):  0.0728793279.
-----------------------------------------------------------------------------
   Largest T2 amplitudes for spin case AB:
       _       _                 _       _                 _       _
   i   j   a   b             i   j   a   b             i   j   a   b
-----------------------------------------------------------------------------
[ 27  27  29  29]-0.07295 [ 27  27 116 116]-0.07295 [ 16  16 116 116]-0.07295
[ 16  16  29  29]-0.07295 [ 16  16  31  31]-0.04697 [ 27  27 117 117]-0.04697
[ 16  16  28  28]-0.04639 [ 27  27  28  28]-0.04639 [ 15  15  28  28]-0.04205
[ 15  15  30  30]-0.04168 [ 16  15  31  28] 0.03955 [ 15  16  28  31] 0.03955
[ 27  15 117  28] 0.03955 [ 15  27  28 117] 0.03955 [ 27  27  30  30]-0.03619
-----------------------------------------------------------------------------
   Norm of T2AB vector (  9218537 symmetry allowed elements):  0.5496123376.
-----------------------------------------------------------------------------
       Summary of iterative solution of CC equations 
      -----------------------------------------------------------
                       Correlation           Total
       Iteration         Energy              Energy
      -----------------------------------------------------------
            0        -1.071890365364    -972.198716144224  DIIS 
            1        -1.097599286753    -972.224425065613  DIIS 
            2        -1.111911301714    -972.238737080574  DIIS 
            3        -1.113404083324    -972.240229862184  DIIS 
            4        -1.114970715209    -972.241796494069  DIIS 
            5        -1.115172479030    -972.241998257890  DIIS 
            6        -1.115106902174    -972.241932681035  DIIS 
            7        -1.115108543586    -972.241934322446  DIIS 
            8        -1.115110937597    -972.241936716457  DIIS 
            9        -1.115112270357    -972.241938049217  DIIS 
           10        -1.115113378325    -972.241939157186  DIIS 
           11        -1.115113735506    -972.241939514367  DIIS 
           12        -1.115113919224    -972.241939698084  DIIS 
           13        -1.115114101862    -972.241939880722  DIIS 
           14        -1.115114156567    -972.241939935427  DIIS 
           15        -1.115114179626    -972.241939958487  DIIS 
           16        -1.115114183196    -972.241939962056  DIIS 
           17        -1.115114180712    -972.241939959572  DIIS 
           18        -1.115114180982    -972.241939959842  DIIS 
           19        -1.115114180637    -972.241939959497  DIIS 
           20        -1.115114181160    -972.241939960021  DIIS 
           21        -1.115114181642    -972.241939960502  DIIS 
           22        -1.115114181811    -972.241939960672  DIIS 
           23        -1.115114181919    -972.241939960780  DIIS 
           24        -1.115114181927    -972.241939960787  DIIS 
      -----------------------------------------------------------
      A miracle has come to pass. The CC iterations have converged.
 @DIMT3-I, Dimensions of T3 amplitudes : 
               # abc          # ijk       Symmetry    Spin 
                   328416           1440     1          1
                   328943           1485     2          1
                   999152           4736     1          2
                   998047           4741     2          2
                   999152           4736     1          3
                   998047           4741     2          3
                   328416           1440     1          4
                   328943           1485     2          4
 @DIMT3-I, Dimensions of T3 amplitudes : 
               # abc          # ijk       Symmetry    Spin 
                   328416           1440     1          1
                   328943           1485     2          1
                   999152           4736     1          2
                   998047           4741     2          2
                   999152           4736     1          3
                   998047           4741     2          3
                   328416           1440     1          4
                   328943           1485     2          4
 @TRPS-I, Welcome to TRPS. Watch your RUs ! 
 @TRPS-I, Method is CCSD(T) 
 @TRPS-I, Calculation type is energy 
 @TRPS-I, Reference function information : 
          Reference function is Hartree-Fock 
          Reference function is RHF Hartree-Fock 
 @TRPS-I, INT1 is true 
 @TRPS-I, INT2 is false 
 @TRPS-I, Lengths of ijka integrals. #1     753379
                                     #2     753379
                                     #3    1565861
                                     #4    1565861
                                    Max    1565861
 @INITRP-I, Initializing W intermediate lists. 
 @SETOOOV-I, Some OOOV lists are being transposed. 
 @TRPS-I, Available memory in integer words   1499959040
          Number of pre-allocated words for TRPS2      1433216
          Number of free words for TRPS2   1498525824
 @TRPS2-I, Spin case AAB 
 @TRPS2-I, Number of free integer words 1498525824
           Number of free double  words 1498525824
           Ratio                                 1
 @TRPS2-I, E4TBAA      -0.012078807438
  @TRPS2-I, E4TAAA  -6.070052638270118E-004
 @TRPS2-I, E5ST A    0.000593541646081
 @TRPS2-I, E5ST B    0.000312247046433
 @SETOOOV-I, Some OOOV lists are being transposed. 
 @CCENRG-I, CCSD/QCISD energy will now be evaluated. 
 @CCENRG-I, Correlation energies. ECCAA       -0.142169243270
                                  ECCBB        0.000000000000
                                  ECCAB       -0.830775695386
                                  Total       -1.115114181927
 @CCENRG-I, Reference   energy    -971.126825778860
            CCSD/QCISD energy     -972.241939960787
          E4T (T(CCSD)) = -0.025371625404
          E5ST          =  0.001811577385
          E4ST          =  0.000000000000
          In other words  
          <T3[2](Dagger) D3  T3[2]> = -0.025371625404
          <T1   (Dagger) Q1 WT3[2]> =  0.001811577385
          <T2   (Dagger) Q2 FT3[2]> =  0.000000000000
        E(CCSD)           =    -972.241939960787
        E(CCSD + T(CCSD)) =    -972.267311586191
        E(CCSD(T))        =    -972.265500008806
  @CHECKOUT-I, Total execution time (CPU/WALL):     1651.75/    1726.83 seconds.
--executable xvcc finished with status     0 in     1727.13 seconds (walltime).
  The final electronic energy is      -972.265500008805702 a.u. 
  This computation required                         8274.25 seconds (walltime).
