#INFO: **** input file is /project/6004934/nike/atomic/O/triplet/inp_UHF.py ****
#!/usr/bin/env python
# Author: Nike Dattani, nike@hpqc.org

'''
O in aug-cc-pV7Z
'''

import pyscf
from pyscf.gto.basis import parse_gaussian

mol = pyscf.M(
    atom = '''       
        O
    ''',
    unit = 'angstrom',
    basis = {
            'O' : parse_gaussian.load('/home/nike/AI_ENERGIES/O/av7z.gbs', 'O')
    },
    charge = 0,
    spin = 2,
    verbose = 9,
    symmetry = True,
    output = 'O_av7z_UHF.txt',
    symmetry_subgroup = 'Dooh',
)

#mol.max_memory =100000
mol.max_memory =16000
#mol.max_memory =4000
#mol.max_memory =100
mf = mol.UHF()
mf.irrep_nelec = {'A1g': (2,2), 'E1ux': (1,0), 'E1uy': (1,0),'A1u': (1,1)}
#mf.irrep_nelec = {'A1g': 4, 'E1ux': 1, 'E1uy': 1,'A1u': 2}
mf.chkfile = 'O_av7z_UHF.chk'
mf.init_guess='O_av6z_UHF.chk'
mf.kernel()


    
#INFO: ******************** input file end ********************


System: uname_result(system='Linux', node='cedar5.cedar.computecanada.ca', release='3.10.0-1160.53.1.el7.x86_64', version='#1 SMP Fri Jan 14 13:59:45 UTC 2022', machine='x86_64', processor='')  Threads 1
Python 3.8.10 (default, Jun 16 2021, 14:20:20) 
[GCC 9.3.0]
numpy 1.23.0  scipy 1.9.3
Date: Wed Dec  7 11:12:32 2022
PySCF version 2.1.1
PySCF path  /home/nike/.local/lib/python3.8/site-packages/pyscf

[CONFIG] DEBUG = False
[CONFIG] MAX_MEMORY = 4000
[CONFIG] TMPDIR = /tmp
[CONFIG] UNIT = angstrom
[CONFIG] VERBOSE = 3
[CONFIG] conf_file = None
[INPUT] verbose = 9
[INPUT] max_memory = 4000 
[INPUT] num. atoms = 1
[INPUT] num. electrons = 8
[INPUT] charge = 0
[INPUT] spin (= nelec alpha-beta = 2S) = 2
[INPUT] symmetry True subgroup Dooh
[INPUT] Mole.unit = angstrom
[INPUT] Symbol           X                Y                Z      unit          X                Y                Z       unit  Magmom
[INPUT]  1 O      0.000000000000   0.000000000000   0.000000000000 AA    0.000000000000   0.000000000000   0.000000000000 Bohr   0.0
[INPUT] ---------------- BASIS SET ---------------- 
[INPUT] l, kappa, [nprim/nctr], expnt,             c_1 c_2 ...
[INPUT] O
[INPUT] 0    0    [12   /2   ]  1678789           1.4e-06 -3e-07
                                251388.2          1.12e-05 -2.5e-06
                                57213.73          5.89e-05 -1.34e-05
                                16207.44          0.000249 -5.6e-05
                                5288.276          0.000907 -0.000206
                                1909.478          0.002957 -0.000672
                                744.9231          0.008791 -0.002013
                                309.0755          0.02398 -0.005535
                                134.8645          0.059381 -0.014079
                                61.33129          0.12965 -0.032113
                                28.83796          0.236064 -0.064676
                                13.94504          0.322921 -0.107154
[INPUT] 0    0    [1    /1   ]  6.899077             1
[INPUT] 0    0    [1    /1   ]  3.431577             1
[INPUT] 0    0    [1    /1   ]  1.53984              1
[INPUT] 0    0    [1    /1   ]  0.709751             1
[INPUT] 0    0    [1    /1   ]  0.323047             1
[INPUT] 0    0    [1    /1   ]  0.144222             1
[INPUT] 0    0    [1    /1   ]  0.05547              1
[INPUT] 1    0    [6    /1   ]  1349.059          3.23e-05
                                319.4569          0.000286
                                103.7804          0.001616
                                39.62821          0.006785
                                16.66137          0.022499
                                7.464166          0.061674
[INPUT] 1    0    [1    /1   ]  3.509325             1
[INPUT] 1    0    [1    /1   ]  1.69568              1
[INPUT] 1    0    [1    /1   ]  0.822742             1
[INPUT] 1    0    [1    /1   ]  0.395733             1
[INPUT] 1    0    [1    /1   ]  0.187644             1
[INPUT] 1    0    [1    /1   ]  0.085841             1
[INPUT] 1    0    [1    /1   ]  0.0286137            1
[INPUT] 2    0    [1    /1   ]  10.064293            1
[INPUT] 2    0    [1    /1   ]  4.8432594            1
[INPUT] 2    0    [1    /1   ]  2.3307312            1
[INPUT] 2    0    [1    /1   ]  1.1216223            1
[INPUT] 2    0    [1    /1   ]  0.5397605            1
[INPUT] 2    0    [1    /1   ]  0.25975              1
[INPUT] 2    0    [1    /1   ]  0.1039               1
[INPUT] 3    0    [1    /1   ]  6.9117087            1
[INPUT] 3    0    [1    /1   ]  3.4199449            1
[INPUT] 3    0    [1    /1   ]  1.6922043            1
[INPUT] 3    0    [1    /1   ]  0.8373104            1
[INPUT] 3    0    [1    /1   ]  0.414305             1
[INPUT] 3    0    [1    /1   ]  0.172627             1
[INPUT] 4    0    [1    /1   ]  7.2379949            1
[INPUT] 4    0    [1    /1   ]  3.4157598            1
[INPUT] 4    0    [1    /1   ]  1.6119678            1
[INPUT] 4    0    [1    /1   ]  0.760721             1
[INPUT] 4    0    [1    /1   ]  0.345782             1
[INPUT] 5    0    [1    /1   ]  5.7331092            1
[INPUT] 5    0    [1    /1   ]  2.5824816            1
[INPUT] 5    0    [1    /1   ]  1.16328              1
[INPUT] 5    0    [1    /1   ]  0.58164              1
[INPUT] 6    0    [1    /1   ]  4.813                1
[INPUT] 6    0    [1    /1   ]  2.078                1
[INPUT] 6    0    [1    /1   ]  1.039                1
[INPUT] 7    0    [1    /1   ]  3.123                1
[INPUT] 7    0    [1    /1   ]  1.232                1

nuclear repulsion = 0
point group symmetry = SO3, use subgroup Dooh
symmetry origin: [0. 0. 0.]
symmetry axis x: [1. 0. 0.]
symmetry axis y: [0. 1. 0.]
symmetry axis z: [0. 0. 1.]
num. orbitals of irrep A1g = 24
num. orbitals of irrep E1gx = 15
num. orbitals of irrep E1gy = 15
num. orbitals of irrep A1u = 20
num. orbitals of irrep E1uy = 20
num. orbitals of irrep E1ux = 20
num. orbitals of irrep E2gx = 15
num. orbitals of irrep E2gy = 15
num. orbitals of irrep E3gx = 8
num. orbitals of irrep E3gy = 8
num. orbitals of irrep E2uy = 12
num. orbitals of irrep E2ux = 12
num. orbitals of irrep E3uy = 12
num. orbitals of irrep E3ux = 12
num. orbitals of irrep E4gx = 8
num. orbitals of irrep E4gy = 8
num. orbitals of irrep E5gx = 3
num. orbitals of irrep E5gy = 3
num. orbitals of irrep E4uy = 6
num. orbitals of irrep E4ux = 6
num. orbitals of irrep E5uy = 6
num. orbitals of irrep E5ux = 6
num. orbitals of irrep E6gx = 3
num. orbitals of irrep E6gy = 3
num. orbitals of irrep E6uy = 2
num. orbitals of irrep E6ux = 2
num. orbitals of irrep E7uy = 2
num. orbitals of irrep E7ux = 2
number of shells = 43
number of NR pGTOs = 293
number of NR cGTOs = 268
basis = {'O': [[0, [1678789.0, 1.4e-06, -3e-07], [251388.2, 1.12e-05, -2.5e-06], [57213.73, 5.89e-05, -1.34e-05], [16207.44, 0.000249, -5.6e-05], [5288.276, 0.000907, -0.000206], [1909.478, 0.002957, -0.000672], [744.9231, 0.008791, -0.002013], [309.0755, 0.02398, -0.005535], [134.8645, 0.059381, -0.014079], [61.33129, 0.12965, -0.032113], [28.83796, 0.236064, -0.064676], [13.94504, 0.322921, -0.107154]], [0, [6.899077, 1.0]], [0, [3.431577, 1.0]], [0, [1.53984, 1.0]], [0, [0.709751, 1.0]], [0, [0.323047, 1.0]], [0, [0.144222, 1.0]], [0, [0.05547, 1.0]], [1, [1349.059, 3.23e-05], [319.4569, 0.000286], [103.7804, 0.001616], [39.62821, 0.006785], [16.66137, 0.022499], [7.464166, 0.061674]], [1, [3.509325, 1.0]], [1, [1.69568, 1.0]], [1, [0.822742, 1.0]], [1, [0.395733, 1.0]], [1, [0.187644, 1.0]], [1, [0.085841, 1.0]], [1, [0.0286137, 1.0]], [2, [10.064293, 1.0]], [2, [4.8432594, 1.0]], [2, [2.3307312, 1.0]], [2, [1.1216223, 1.0]], [2, [0.5397605, 1.0]], [2, [0.25975, 1.0]], [2, [0.1039, 1.0]], [3, [6.9117087, 1.0]], [3, [3.4199449, 1.0]], [3, [1.6922043, 1.0]], [3, [0.8373104, 1.0]], [3, [0.414305, 1.0]], [3, [0.172627, 1.0]], [4, [7.2379949, 1.0]], [4, [3.4157598, 1.0]], [4, [1.6119678, 1.0]], [4, [0.760721, 1.0]], [4, [0.345782, 1.0]], [5, [5.7331092, 1.0]], [5, [2.5824816, 1.0]], [5, [1.16328, 1.0]], [5, [0.58164, 1.0]], [6, [4.813, 1.0]], [6, [2.078, 1.0]], [6, [1.039, 1.0]], [7, [3.123, 1.0]], [7, [1.232, 1.0]]]}
ecp = {}
bas 0, expnt(s) = [1.678789e+06 2.513882e+05 5.721373e+04 1.620744e+04 5.288276e+03
 1.909478e+03 7.449231e+02 3.090755e+02 1.348645e+02 6.133129e+01
 2.883796e+01 1.394504e+01]
bas 1, expnt(s) = [6.899077]
bas 2, expnt(s) = [3.431577]
bas 3, expnt(s) = [1.53984]
bas 4, expnt(s) = [0.709751]
bas 5, expnt(s) = [0.323047]
bas 6, expnt(s) = [0.144222]
bas 7, expnt(s) = [0.05547]
bas 8, expnt(s) = [1349.059     319.4569    103.7804     39.62821    16.66137     7.464166]
bas 9, expnt(s) = [3.509325]
bas 10, expnt(s) = [1.69568]
bas 11, expnt(s) = [0.822742]
bas 12, expnt(s) = [0.395733]
bas 13, expnt(s) = [0.187644]
bas 14, expnt(s) = [0.085841]
bas 15, expnt(s) = [0.0286137]
bas 16, expnt(s) = [10.064293]
bas 17, expnt(s) = [4.8432594]
bas 18, expnt(s) = [2.3307312]
bas 19, expnt(s) = [1.1216223]
bas 20, expnt(s) = [0.5397605]
bas 21, expnt(s) = [0.25975]
bas 22, expnt(s) = [0.1039]
bas 23, expnt(s) = [6.9117087]
bas 24, expnt(s) = [3.4199449]
bas 25, expnt(s) = [1.6922043]
bas 26, expnt(s) = [0.8373104]
bas 27, expnt(s) = [0.414305]
bas 28, expnt(s) = [0.172627]
bas 29, expnt(s) = [7.2379949]
bas 30, expnt(s) = [3.4157598]
bas 31, expnt(s) = [1.6119678]
bas 32, expnt(s) = [0.760721]
bas 33, expnt(s) = [0.345782]
bas 34, expnt(s) = [5.7331092]
bas 35, expnt(s) = [2.5824816]
bas 36, expnt(s) = [1.16328]
bas 37, expnt(s) = [0.58164]
bas 38, expnt(s) = [4.813]
bas 39, expnt(s) = [2.078]
bas 40, expnt(s) = [1.039]
bas 41, expnt(s) = [3.123]
bas 42, expnt(s) = [1.232]
CPU time:         1.13
arg.atm = [[ 8 20  1 23  0  0]]
arg.bas = [[  0   0  12   2   0  24  36   0]
 [  0   0   1   1   0  60  61   0]
 [  0   0   1   1   0  62  63   0]
 [  0   0   1   1   0  64  65   0]
 [  0   0   1   1   0  66  67   0]
 [  0   0   1   1   0  68  69   0]
 [  0   0   1   1   0  70  71   0]
 [  0   0   1   1   0  72  73   0]
 [  0   1   6   1   0  74  80   0]
 [  0   1   1   1   0  86  87   0]
 [  0   1   1   1   0  88  89   0]
 [  0   1   1   1   0  90  91   0]
 [  0   1   1   1   0  92  93   0]
 [  0   1   1   1   0  94  95   0]
 [  0   1   1   1   0  96  97   0]
 [  0   1   1   1   0  98  99   0]
 [  0   2   1   1   0 100 101   0]
 [  0   2   1   1   0 102 103   0]
 [  0   2   1   1   0 104 105   0]
 [  0   2   1   1   0 106 107   0]
 [  0   2   1   1   0 108 109   0]
 [  0   2   1   1   0 110 111   0]
 [  0   2   1   1   0 112 113   0]
 [  0   3   1   1   0 114 115   0]
 [  0   3   1   1   0 116 117   0]
 [  0   3   1   1   0 118 119   0]
 [  0   3   1   1   0 120 121   0]
 [  0   3   1   1   0 122 123   0]
 [  0   3   1   1   0 124 125   0]
 [  0   4   1   1   0 126 127   0]
 [  0   4   1   1   0 128 129   0]
 [  0   4   1   1   0 130 131   0]
 [  0   4   1   1   0 132 133   0]
 [  0   4   1   1   0 134 135   0]
 [  0   5   1   1   0 136 137   0]
 [  0   5   1   1   0 138 139   0]
 [  0   5   1   1   0 140 141   0]
 [  0   5   1   1   0 142 143   0]
 [  0   6   1   1   0 144 145   0]
 [  0   6   1   1   0 146 147   0]
 [  0   6   1   1   0 148 149   0]
 [  0   7   1   1   0 150 151   0]
 [  0   7   1   1   0 152 153   0]]
arg.env = [ 0.00000000e+00  0.00000000e+00  0.00000000e+00  0.00000000e+00
  0.00000000e+00  0.00000000e+00  0.00000000e+00  0.00000000e+00
  0.00000000e+00  0.00000000e+00  0.00000000e+00  0.00000000e+00
  0.00000000e+00  0.00000000e+00  0.00000000e+00  0.00000000e+00
  0.00000000e+00  0.00000000e+00  0.00000000e+00  0.00000000e+00
  0.00000000e+00  0.00000000e+00  0.00000000e+00  0.00000000e+00
  1.67878900e+06  2.51388200e+05  5.72137300e+04  1.62074400e+04
  5.28827600e+03  1.90947800e+03  7.44923100e+02  3.09075500e+02
  1.34864500e+02  6.13312900e+01  2.88379600e+01  1.39450400e+01
  2.33049560e-01  4.48796906e-01  7.77702789e-01  1.27661026e+00
  2.00754846e+00  3.04867047e+00  4.47399018e+00  6.30914893e+00
  8.38771967e+00  1.01416183e+01  1.04851906e+01  8.31733659e+00
 -1.71321480e-01 -3.43670418e-01 -6.06978728e-01 -9.84957111e-01
 -1.56421441e+00 -2.37683341e+00 -3.51455895e+00 -4.99585169e+00
 -6.82242107e+00 -8.61759203e+00 -9.85507718e+00 -9.46818396e+00
  6.89907700e+00  1.07549468e+01  3.43157700e+00  6.36993991e+00
  1.53984000e+00  3.49238185e+00  7.09751000e-01  1.95363998e+00
  3.23047000e-01  1.08259074e+00  1.44222000e-01  5.91273833e-01
  5.54700000e-02  2.88774372e-01  1.34905900e+03  3.19456900e+02
  1.03780400e+02  3.96282100e+01  1.66613700e+01  7.46416600e+00
  8.98636010e+00  1.31438922e+01  1.82149569e+01  2.29560963e+01
  2.57717683e+01  2.58923425e+01  3.50932500e+00  1.40124437e+01
  1.69568000e+00  5.64500414e+00  8.22742000e-01  2.28593553e+00
  3.95733000e-01  9.15666292e-01  1.87644000e-01  3.60290446e-01
  8.58410000e-02  1.35551040e-01  2.86137000e-02  3.43322224e-02
  1.00642930e+01  1.48388455e+02  4.84325940e+00  4.12591630e+01
  2.33073120e+00  1.14720417e+01  1.12162230e+00  3.18978196e+00
  5.39760500e-01  8.86913591e-01  2.59750000e-01  2.46604848e-01
  1.03900000e-01  4.96142687e-02  6.91170870e+00  1.52783893e+02
  3.41994490e+00  3.13728055e+01  1.69220430e+00  6.44212502e+00
  8.37310400e-01  1.32283280e+00  4.14305000e-01  2.71631889e-01
  1.72627000e-01  3.78882886e-02  7.23799490e+00  3.03997038e+02
  3.41575980e+00  3.85486560e+01  1.61196780e+00  4.88820149e+00
  7.60721000e-01  6.19853371e-01  3.45782000e-01  7.08966400e-02
  5.73310920e+00  2.31217633e+02  2.58248160e+00  1.73130575e+01
  1.16328000e+00  1.29636293e+00  5.81640000e-01  1.36263368e-01
  4.81300000e+00  1.59356784e+02  2.07800000e+00  6.83096189e+00
  1.03900000e+00  5.07714280e-01  3.12300000e+00  2.87227736e+01
  1.23200000e+00  5.51303754e-01]
ecpbas  = []


******** <class 'pyscf.scf.uhf_symm.SymAdaptedUHF'> ********
method = SymAdaptedUHF-UHF
initial guess = O_av6z_UHF.chk
damping factor = 0
level_shift factor = 0
DIIS = <class 'pyscf.scf.diis.CDIIS'>
diis_start_cycle = 1
diis_space = 8
SCF conv_tol = 1e-09
SCF conv_tol_grad = None
SCF max_cycles = 50
direct_scf = True
direct_scf_tol = 1e-13
chkfile to save SCF result = O_av7z_UHF.chk
max_memory 16000 MB (current use 73 MB)
number electrons alpha = 5  beta = 3
irrep_nelec {'A1g': (2, 2), 'E1ux': (1, 0), 'E1uy': (1, 0), 'A1u': (1, 1)}
Freeze 8 electrons in irreps ['A1g', 'E1ux', 'E1uy', 'A1u']
    0 free electrons in irreps E1gx E1gy E2gx E2gy E3gx E3gy E2uy E2ux E3uy E3ux E4gx E4gy E5gx E5gy E4uy E4ux E5uy E5ux E6gx E6gy E6uy E6ux E7uy E7ux
Set gradient conv threshold to 3.16228e-05
Nelec from initial guess = (3.999995478006789, 3.999995478006789)
E1 = -103.09370884103774  Ecoul = 28.805904692968518
init E= -74.2878041480692
cond(S) = 23709.98237925399
    CPU time for initialize scf    130.73 sec, wall time    132.00 sec
alpha HOMO (E1ux) = -0.391077268700938  LUMO (E1uy) = 0.0665291617895017
alpha irrep_nelec = [2, 0, 0, 1, 1, 1, 0, 0, 0, 0, 0, 0, 0, 0, 0, 0, 0, 0, 0, 0, 0, 0, 0, 0, 0, 0, 0, 0]
beta  irrep_nelec = [2, 0, 0, 1, 0, 0, 0, 0, 0, 0, 0, 0, 0, 0, 0, 0, 0, 0, 0, 0, 0, 0, 0, 0, 0, 0, 0, 0]
alpha-A1g nocc = 2  HOMO = -1.26312175607477  LUMO = 0.0947881206841271
   mo_energy = [-2.07014486e+01 -1.26312176e+00  9.47881207e-02  3.09492949e-01
  5.15505233e-01  9.25894473e-01  1.70789884e+00  1.74836993e+00
  2.14561498e+00  4.42400009e+00  4.63049134e+00  5.02751660e+00
  7.13826895e+00  9.82456816e+00  9.84462785e+00  1.37159972e+01
  1.67494661e+01  2.11975659e+01  2.12554954e+01  3.82758578e+01
  3.89895744e+01  4.69086778e+01  4.70682064e+01  1.71669602e+02]
alpha-E1gx nocc = 0
   mo_energy = [ 0.30949295  0.92589447  1.70789884  2.14561498  4.42400009  4.63049134
  7.13826895  9.82456816  9.84462785 16.74946614 21.1975659  21.25549537
 38.98957441 46.90867779 47.06820643]
alpha-E1gy nocc = 0
   mo_energy = [ 0.30949295  0.92589447  1.70789884  2.14561498  4.42400009  4.63049134
  7.13826895  9.82456816  9.84462785 16.74946614 21.1975659  21.25549537
 38.98957441 46.90867779 47.06820643]
alpha-A1u nocc = 1  HOMO = -0.391077268700956  LUMO = 0.0665291617895091
   mo_energy = [-0.39107727  0.06652916  0.28631418  0.68927249  0.85049895  1.93122298
  2.13157367  3.40543916  4.33437693  4.97636474  8.19494152  9.03643414
 10.09548811 11.44145635 18.2651078  18.70061142 27.30322677 31.25036759
 39.79029753 41.55308042]
alpha-E1uy nocc = 1  HOMO = -0.391077268700957  LUMO = 0.0665291617895017
   mo_energy = [-0.39107727  0.06652916  0.28631418  0.68927249  0.85049895  1.93122298
  2.13157367  3.40543916  4.33437693  4.97636474  8.19494152  9.03643414
 10.09548811 11.44145635 18.2651078  18.70061142 27.30322677 31.25036759
 39.79029753 41.55308042]
alpha-E1ux nocc = 1  HOMO = -0.391077268700938  LUMO = 0.0665291617895081
   mo_energy = [-0.39107727  0.06652916  0.28631418  0.68927249  0.85049895  1.93122298
  2.13157367  3.40543916  4.33437693  4.97636474  8.19494152  9.03643414
 10.09548811 11.44145635 18.2651078  18.70061142 27.30322677 31.25036759
 39.79029753 41.55308042]
alpha-E2gx nocc = 0
   mo_energy = [ 0.30949295  0.92589447  1.70789884  2.14561498  4.42400009  4.63049134
  7.13826895  9.82456816  9.84462785 16.74946614 21.1975659  21.25549537
 38.98957441 46.90867779 47.06820643]
alpha-E2gy nocc = 0
   mo_energy = [ 0.30949295  0.92589447  1.70789884  2.14561498  4.42400009  4.63049134
  7.13826895  9.82456816  9.84462785 16.74946614 21.1975659  21.25549537
 38.98957441 46.90867779 47.06820643]
alpha-E3gx nocc = 0
   mo_energy = [ 1.70789884  4.42400009  7.13826895  9.84462785 16.74946614 21.1975659
 38.98957441 46.90867779]
alpha-E3gy nocc = 0
   mo_energy = [ 1.70789884  4.42400009  7.13826895  9.84462785 16.74946614 21.1975659
 38.98957441 46.90867779]
alpha-E2uy nocc = 0
   mo_energy = [ 0.68927249  1.93122298  3.40543916  4.33437693  8.19494152  9.03643414
 10.09548811 18.2651078  18.70061142 27.30322677 39.79029753 41.55308042]
alpha-E2ux nocc = 0
   mo_energy = [ 0.68927249  1.93122298  3.40543916  4.33437693  8.19494152  9.03643414
 10.09548811 18.2651078  18.70061142 27.30322677 39.79029753 41.55308042]
alpha-E3uy nocc = 0
   mo_energy = [ 0.68927249  1.93122298  3.40543916  4.33437693  8.19494152  9.03643414
 10.09548811 18.2651078  18.70061142 27.30322677 39.79029753 41.55308042]
alpha-E3ux nocc = 0
   mo_energy = [ 0.68927249  1.93122298  3.40543916  4.33437693  8.19494152  9.03643414
 10.09548811 18.2651078  18.70061142 27.30322677 39.79029753 41.55308042]
alpha-E4gx nocc = 0
   mo_energy = [ 1.70789884  4.42400009  7.13826895  9.84462785 16.74946614 21.1975659
 38.98957441 46.90867779]
alpha-E4gy nocc = 0
   mo_energy = [ 1.70789884  4.42400009  7.13826895  9.84462785 16.74946614 21.1975659
 38.98957441 46.90867779]
alpha-E5gx nocc = 0
   mo_energy = [ 7.13826895 16.74946614 38.98957441]
alpha-E5gy nocc = 0
   mo_energy = [ 7.13826895 16.74946614 38.98957441]
alpha-E4uy nocc = 0
   mo_energy = [ 3.40543916  8.19494152 10.09548811 18.2651078  27.30322677 41.55308042]
alpha-E4ux nocc = 0
   mo_energy = [ 3.40543916  8.19494152 10.09548811 18.2651078  27.30322677 41.55308042]
alpha-E5uy nocc = 0
   mo_energy = [ 3.40543916  8.19494152 10.09548811 18.2651078  27.30322677 41.55308042]
alpha-E5ux nocc = 0
   mo_energy = [ 3.40543916  8.19494152 10.09548811 18.2651078  27.30322677 41.55308042]
alpha-E6gx nocc = 0
   mo_energy = [ 7.13826895 16.74946614 38.98957441]
alpha-E6gy nocc = 0
   mo_energy = [ 7.13826895 16.74946614 38.98957441]
alpha-E6uy nocc = 0
   mo_energy = [10.09548811 27.30322677]
alpha-E6ux nocc = 0
   mo_energy = [10.09548811 27.30322677]
alpha-E7uy nocc = 0
   mo_energy = [10.09548811 27.30322677]
alpha-E7ux nocc = 0
   mo_energy = [10.09548811 27.30322677]
beta-A1g nocc = 2  HOMO = -1.26312175607477  LUMO = 0.0947881206841271
   mo_energy = [-2.07014486e+01 -1.26312176e+00  9.47881207e-02  3.09492949e-01
  5.15505233e-01  9.25894473e-01  1.70789884e+00  1.74836993e+00
  2.14561498e+00  4.42400009e+00  4.63049134e+00  5.02751660e+00
  7.13826895e+00  9.82456816e+00  9.84462785e+00  1.37159972e+01
  1.67494661e+01  2.11975659e+01  2.12554954e+01  3.82758578e+01
  3.89895744e+01  4.69086778e+01  4.70682064e+01  1.71669602e+02]
beta-E1gx nocc = 0
   mo_energy = [ 0.30949295  0.92589447  1.70789884  2.14561498  4.42400009  4.63049134
  7.13826895  9.82456816  9.84462785 16.74946614 21.1975659  21.25549537
 38.98957441 46.90867779 47.06820643]
beta-E1gy nocc = 0
   mo_energy = [ 0.30949295  0.92589447  1.70789884  2.14561498  4.42400009  4.63049134
  7.13826895  9.82456816  9.84462785 16.74946614 21.1975659  21.25549537
 38.98957441 46.90867779 47.06820643]
beta-A1u nocc = 1  HOMO = -0.391077268700956  LUMO = 0.0665291617895091
   mo_energy = [-0.39107727  0.06652916  0.28631418  0.68927249  0.85049895  1.93122298
  2.13157367  3.40543916  4.33437693  4.97636474  8.19494152  9.03643414
 10.09548811 11.44145635 18.2651078  18.70061142 27.30322677 31.25036759
 39.79029753 41.55308042]
beta-E1uy nocc = 0
   mo_energy = [-0.39107727  0.06652916  0.28631418  0.68927249  0.85049895  1.93122298
  2.13157367  3.40543916  4.33437693  4.97636474  8.19494152  9.03643414
 10.09548811 11.44145635 18.2651078  18.70061142 27.30322677 31.25036759
 39.79029753 41.55308042]
beta-E1ux nocc = 0
   mo_energy = [-0.39107727  0.06652916  0.28631418  0.68927249  0.85049895  1.93122298
  2.13157367  3.40543916  4.33437693  4.97636474  8.19494152  9.03643414
 10.09548811 11.44145635 18.2651078  18.70061142 27.30322677 31.25036759
 39.79029753 41.55308042]
beta-E2gx nocc = 0
   mo_energy = [ 0.30949295  0.92589447  1.70789884  2.14561498  4.42400009  4.63049134
  7.13826895  9.82456816  9.84462785 16.74946614 21.1975659  21.25549537
 38.98957441 46.90867779 47.06820643]
beta-E2gy nocc = 0
   mo_energy = [ 0.30949295  0.92589447  1.70789884  2.14561498  4.42400009  4.63049134
  7.13826895  9.82456816  9.84462785 16.74946614 21.1975659  21.25549537
 38.98957441 46.90867779 47.06820643]
beta-E3gx nocc = 0
   mo_energy = [ 1.70789884  4.42400009  7.13826895  9.84462785 16.74946614 21.1975659
 38.98957441 46.90867779]
beta-E3gy nocc = 0
   mo_energy = [ 1.70789884  4.42400009  7.13826895  9.84462785 16.74946614 21.1975659
 38.98957441 46.90867779]
beta-E2uy nocc = 0
   mo_energy = [ 0.68927249  1.93122298  3.40543916  4.33437693  8.19494152  9.03643414
 10.09548811 18.2651078  18.70061142 27.30322677 39.79029753 41.55308042]
beta-E2ux nocc = 0
   mo_energy = [ 0.68927249  1.93122298  3.40543916  4.33437693  8.19494152  9.03643414
 10.09548811 18.2651078  18.70061142 27.30322677 39.79029753 41.55308042]
beta-E3uy nocc = 0
   mo_energy = [ 0.68927249  1.93122298  3.40543916  4.33437693  8.19494152  9.03643414
 10.09548811 18.2651078  18.70061142 27.30322677 39.79029753 41.55308042]
beta-E3ux nocc = 0
   mo_energy = [ 0.68927249  1.93122298  3.40543916  4.33437693  8.19494152  9.03643414
 10.09548811 18.2651078  18.70061142 27.30322677 39.79029753 41.55308042]
beta-E4gx nocc = 0
   mo_energy = [ 1.70789884  4.42400009  7.13826895  9.84462785 16.74946614 21.1975659
 38.98957441 46.90867779]
beta-E4gy nocc = 0
   mo_energy = [ 1.70789884  4.42400009  7.13826895  9.84462785 16.74946614 21.1975659
 38.98957441 46.90867779]
beta-E5gx nocc = 0
   mo_energy = [ 7.13826895 16.74946614 38.98957441]
beta-E5gy nocc = 0
   mo_energy = [ 7.13826895 16.74946614 38.98957441]
beta-E4uy nocc = 0
   mo_energy = [ 3.40543916  8.19494152 10.09548811 18.2651078  27.30322677 41.55308042]
beta-E4ux nocc = 0
   mo_energy = [ 3.40543916  8.19494152 10.09548811 18.2651078  27.30322677 41.55308042]
beta-E5uy nocc = 0
   mo_energy = [ 3.40543916  8.19494152 10.09548811 18.2651078  27.30322677 41.55308042]
beta-E5ux nocc = 0
   mo_energy = [ 3.40543916  8.19494152 10.09548811 18.2651078  27.30322677 41.55308042]
beta-E6gx nocc = 0
   mo_energy = [ 7.13826895 16.74946614 38.98957441]
beta-E6gy nocc = 0
   mo_energy = [ 7.13826895 16.74946614 38.98957441]
beta-E6uy nocc = 0
   mo_energy = [10.09548811 27.30322677]
beta-E6ux nocc = 0
   mo_energy = [10.09548811 27.30322677]
beta-E7uy nocc = 0
   mo_energy = [10.09548811 27.30322677]
beta-E7ux nocc = 0
   mo_energy = [10.09548811 27.30322677]
multiplicity <S^2> = 2  2S+1 = 3
E1 = -102.38808169109794  Ecoul = 27.599921899814444
cycle= 1 E= -74.7881597912835  delta_E= -0.5  |g|= 0.247  |ddm|= 0.342
    CPU time for cycle= 1      7.53 sec, wall time      7.69 sec
diis-norm(errvec)=1.00195
diis-c [-1.00390655  1.        ]
alpha HOMO (A1u) = -0.679912788218671  LUMO (E1ux) = 0.0636268407688264
alpha irrep_nelec = [2, 0, 0, 1, 1, 1, 0, 0, 0, 0, 0, 0, 0, 0, 0, 0, 0, 0, 0, 0, 0, 0, 0, 0, 0, 0, 0, 0]
beta  irrep_nelec = [2, 0, 0, 1, 0, 0, 0, 0, 0, 0, 0, 0, 0, 0, 0, 0, 0, 0, 0, 0, 0, 0, 0, 0, 0, 0, 0, 0]
alpha-A1g nocc = 2  HOMO = -1.48517501946085  LUMO = 0.0870608207657032
   mo_energy = [-2.09077901e+01 -1.48517502e+00  8.70608208e-02  3.08556518e-01
  4.88821537e-01  9.07858231e-01  1.69437692e+00  1.70983103e+00
  2.10616951e+00  4.41487641e+00  4.57505815e+00  4.93914151e+00
  7.13621738e+00  9.75018947e+00  9.81358903e+00  1.35895648e+01
  1.67246553e+01  2.11246315e+01  2.11658452e+01  3.81162971e+01
  3.89221821e+01  4.68017546e+01  4.69414077e+01  1.71485802e+02]
alpha-E1gx nocc = 0
   mo_energy = [ 0.30633899  0.90071266  1.7084533   2.09364012  4.41178878  4.55852286
  7.1347971   9.73090668  9.80816113 16.72229512 21.11640728 21.14741439
 38.91921302 46.79599639 46.92437958]
alpha-E1gy nocc = 0
   mo_energy = [ 0.30633899  0.90071266  1.7084533   2.09364012  4.41178878  4.55852286
  7.1347971   9.73090668  9.80816113 16.72229512 21.11640728 21.14741439
 38.91921302 46.79599639 46.92437958]
alpha-A1u nocc = 1  HOMO = -0.679912788218671  LUMO = 0.0664120059726128
   mo_energy = [-0.67991279  0.06641201  0.27907402  0.69055113  0.82933729  1.92337579
  2.09684424  3.40714066  4.30902141  4.92689621  8.18241841  8.98794195
 10.09262211 11.36653398 18.22247856 18.62413256 27.26630076 31.12705842
 39.67815389 41.46709997]
alpha-E1uy nocc = 1  HOMO = -0.757479692565068  LUMO = 0.0636268407688307
   mo_energy = [-0.75747969  0.06362684  0.26788289  0.68928192  0.80354357  1.91993328
  2.05272658  3.40583878  4.30287987  4.86404542  8.17989215  8.97929342
 10.09144669 11.29196905 18.21875541 18.61405154 27.2642937  31.06846655
 39.66880865 41.46295747]
alpha-E1ux nocc = 1  HOMO = -0.757479692565093  LUMO = 0.0636268407688264
   mo_energy = [-0.75747969  0.06362684  0.26788289  0.68928192  0.80354357  1.91993328
  2.05272658  3.40583878  4.30287987  4.86404542  8.17989215  8.97929342
 10.09144669 11.29196905 18.21875541 18.61405154 27.2642937  31.06846655
 39.66880865 41.46295747]
alpha-E2gx nocc = 0
   mo_energy = [ 0.29973916  0.88018821  1.70434488  2.05805147  4.40256029  4.51025513
  7.13054026  9.67400324  9.79271935 16.71521913 21.07476598 21.11045984
 38.9103084  46.77874546 46.87406432]
alpha-E2gy nocc = 0
   mo_energy = [ 0.29973916  0.88018821  1.70434488  2.05805147  4.40256029  4.51025513
  7.13054026  9.67400324  9.79271935 16.71521913 21.07476598 21.11045984
 38.9103084  46.77874546 46.87406432]
alpha-E3gx nocc = 0
   mo_energy = [ 1.69755924  4.38729979  7.1234588   9.76795294 16.703441   21.07710718
 38.89547653 46.75013178]
alpha-E3gy nocc = 0
   mo_energy = [ 1.69755924  4.38729979  7.1234588   9.76795294 16.703441   21.07710718
 38.89547653 46.75013178]
alpha-E2uy nocc = 0
   mo_energy = [ 0.68552154  1.91006337  3.40193982  4.28447698  8.17232061  8.95334409
 10.0879237  18.20759268 18.58384772 27.25827478 39.64080149 41.45053635]
alpha-E2ux nocc = 0
   mo_energy = [ 0.68552154  1.91006337  3.40193982  4.28447698  8.17232061  8.95334409
 10.0879237  18.20759268 18.58384772 27.25827478 39.64080149 41.45053635]
alpha-E3uy nocc = 0
   mo_energy = [ 0.67912001  1.89245477  3.39546349  4.25316208  8.15972538  8.90998757
 10.08206287 18.18901028 18.53363004 27.24825073 39.59421512 41.42985558]
alpha-E3ux nocc = 0
   mo_energy = [ 0.67912001  1.89245477  3.39546349  4.25316208  8.15972538  8.90998757
 10.08206287 18.18901028 18.53363004 27.24825073 39.59421512 41.42985558]
alpha-E4gx nocc = 0
   mo_energy = [ 1.68817372  4.36602202  7.11357236  9.7339778  16.68698331 21.03485008
 38.87473109 46.70934111]
alpha-E4gy nocc = 0
   mo_energy = [ 1.68817372  4.36602202  7.11357236  9.7339778  16.68698331 21.03485008
 38.87473109 46.70934111]
alpha-E5gx nocc = 0
   mo_energy = [ 7.10090793 16.66587728 38.84809113]
alpha-E5gy nocc = 0
   mo_energy = [ 7.10090793 16.66587728 38.84809113]
alpha-E4uy nocc = 0
   mo_energy = [ 3.38644168  8.14214164 10.07388017 18.16304025 27.23423274 41.40094611]
alpha-E4ux nocc = 0
   mo_energy = [ 3.38644168  8.14214164 10.07388017 18.16304025 27.23423274 41.40094611]
alpha-E5uy nocc = 0
   mo_energy = [ 3.37491719  8.11961714 10.06339749 18.12972416 27.21623639 41.36385008]
alpha-E5ux nocc = 0
   mo_energy = [ 3.37491719  8.11961714 10.06339749 18.12972416 27.21623639 41.36385008]
alpha-E6gx nocc = 0
   mo_energy = [ 7.08549939 16.64016248 38.81558095]
alpha-E6gy nocc = 0
   mo_energy = [ 7.08549939 16.64016248 38.81558095]
alpha-E6uy nocc = 0
   mo_energy = [10.05064218 27.19428155]
alpha-E6ux nocc = 0
   mo_energy = [10.05064218 27.19428155]
alpha-E7uy nocc = 0
   mo_energy = [10.03564651 27.16839227]
alpha-E7ux nocc = 0
   mo_energy = [10.03564651 27.16839227]
beta-A1g nocc = 2  HOMO = -1.18265322012328  LUMO = 0.0959273139327767
   mo_energy = [-2.08447584e+01 -1.18265322e+00  9.59273139e-02  3.12658553e-01
  5.17488084e-01  9.32121849e-01  1.71415855e+00  1.74353355e+00
  2.15131615e+00  4.42913130e+00  4.62434520e+00  4.99808297e+00
  7.14369542e+00  9.79211085e+00  9.83920530e+00  1.36402104e+01
  1.67385292e+01  2.11530755e+01  2.11974266e+01  3.81462315e+01
  3.89395548e+01  4.68240710e+01  4.69616631e+01  1.71495048e+02]
beta-E1gx nocc = 0
   mo_energy = [ 0.31173454  0.93269891  1.71308487  2.15300822  4.42701584  4.62387357
  7.1424822   9.78635116  9.83515765 16.73654539 21.14864778 21.18639349
 38.93704969 46.81968199 46.95029936]
beta-E1gy nocc = 0
   mo_energy = [ 0.31173454  0.93269891  1.71308487  2.15300822  4.42701584  4.62387357
  7.1424822   9.78635116  9.83515765 16.73654539 21.14864778 21.18639349
 38.93704969 46.81968199 46.95029936]
beta-A1u nocc = 1  HOMO = -0.602578081694692  LUMO = 0.0670432712191543
   mo_energy = [-0.60257808  0.06704327  0.28410532  0.69340433  0.84267528  1.93796462
  2.11734674  3.41250703  4.3371993   4.95143323  8.19583464  9.0230254
 10.0993157  11.39070892 18.24286613 18.65727517 27.27954557 31.14252947
 39.70324443 41.48781746]
beta-E1uy nocc = 0
   mo_energy = [1.17206827e-02 7.87922629e-02 3.11863018e-01 6.92466295e-01
 8.78062527e-01 1.93617712e+00 2.14212778e+00 3.41142402e+00
 4.33421427e+00 4.95108080e+00 8.19383383e+00 9.01836060e+00
 1.00982782e+01 1.13659556e+01 1.82399301e+01 1.86509366e+01
 2.72778008e+01 3.11143832e+01 3.96967049e+01 4.14844793e+01]
beta-E1ux nocc = 0
   mo_energy = [1.17206827e-02 7.87922629e-02 3.11863018e-01 6.92466295e-01
 8.78062527e-01 1.93617712e+00 2.14212778e+00 3.41142402e+00
 4.33421427e+00 4.95108080e+00 8.19383383e+00 9.01836060e+00
 1.00982782e+01 1.13659556e+01 1.82399301e+01 1.86509366e+01
 2.72778008e+01 3.11143832e+01 3.96967049e+01 4.14844793e+01]
beta-E2gx nocc = 0
   mo_energy = [ 0.30927613  0.9358222   1.70986843  2.16073256  4.42064671  4.62192993
  7.1388452   9.76886927  9.82360128 16.7305969  21.13441803 21.15470606
 38.92953617 46.80651034 46.91659241]
beta-E2gy nocc = 0
   mo_energy = [ 0.30927613  0.9358222   1.70986843  2.16073256  4.42064671  4.62192993
  7.1388452   9.76886927  9.82360128 16.7305969  21.13441803 21.15470606
 38.92953617 46.80651034 46.91659241]
beta-E3gx nocc = 0
   mo_energy = [ 1.7045269   4.40997086  7.13279243  9.80565749 16.72069246 21.11921616
 38.9170197  46.78450688]
beta-E3gy nocc = 0
   mo_energy = [ 1.7045269   4.40997086  7.13279243  9.80565749 16.72069246 21.11921616
 38.9170197  46.78450688]
beta-E2uy nocc = 0
   mo_energy = [ 0.68964827  1.93070853  3.40817905  4.32519565  8.18783465  9.00433824
 10.0951681  18.23112523 18.63192806 27.27256801 39.67709905 41.47446829]
beta-E2ux nocc = 0
   mo_energy = [ 0.68964827  1.93070853  3.40817905  4.32519565  8.18783465  9.00433824
 10.0951681  18.23112523 18.63192806 27.27256801 39.67709905 41.47446829]
beta-E3uy nocc = 0
   mo_energy = [ 0.68494485  1.92136943  3.4027842   4.30992295  8.1778469   8.98086289
 10.0899924  18.21646147 18.60026972 27.26385205 39.64446433 41.45779413]
beta-E3ux nocc = 0
   mo_energy = [ 0.68494485  1.92136943  3.4027842   4.30992295  8.1778469   8.98086289
 10.0899924  18.21646147 18.60026972 27.26385205 39.64446433 41.45779413]
beta-E4gx nocc = 0
   mo_energy = [ 1.69709913  4.39495123  7.12433715  9.78202228 16.70684654 21.08847406
 38.89950938 46.75313654]
beta-E4gy nocc = 0
   mo_energy = [ 1.69709913  4.39495123  7.12433715  9.78202228 16.70684654 21.08847406
 38.89950938 46.75313654]
beta-E5gx nocc = 0
   mo_energy = [ 7.11349771 16.68907928 38.87701788]
beta-E5gy nocc = 0
   mo_energy = [ 7.11349771 16.68907928 38.87701788]
beta-E4uy nocc = 0
   mo_energy = [ 3.39525936  8.1638869  10.08276269 18.19595525 27.25166091 41.43447316]
beta-E4ux nocc = 0
   mo_energy = [ 3.39525936  8.1638869  10.08276269 18.19595525 27.25166091 41.43447316]
beta-E5uy nocc = 0
   mo_energy = [ 3.385632    8.14597753 10.07349497 18.16962951 27.23600571 41.40452798]
beta-E5ux nocc = 0
   mo_energy = [ 3.385632    8.14597753 10.07349497 18.16962951 27.23600571 41.40452798]
beta-E6gx nocc = 0
   mo_energy = [ 7.10029739 16.66741638 38.84956142]
beta-E6gy nocc = 0
   mo_energy = [ 7.10029739 16.66741638 38.84956142]
beta-E6uy nocc = 0
   mo_energy = [10.06220939 27.21690069]
beta-E6ux nocc = 0
   mo_energy = [10.06220939 27.21690069]
beta-E7uy nocc = 0
   mo_energy = [10.04892997 27.19436315]
beta-E7ux nocc = 0
   mo_energy = [10.04892997 27.19436315]
multiplicity <S^2> = 2.0024025  2S+1 = 3.0016012
E1 = -103.44751853326946  Ecoul = 28.63221739209305
cycle= 2 E= -74.8153011411764  delta_E= -0.0271  |g|= 0.0973  |ddm|= 0.0918
    CPU time for cycle= 2      7.19 sec, wall time      7.38 sec
diis-norm(errvec)=0.303237
diis-c [-0.08337169  0.08804834  0.91195166]
alpha HOMO (A1u) = -0.601358527523011  LUMO (E1ux) = 0.0644533612497717
alpha irrep_nelec = [2, 0, 0, 1, 1, 1, 0, 0, 0, 0, 0, 0, 0, 0, 0, 0, 0, 0, 0, 0, 0, 0, 0, 0, 0, 0, 0, 0]
beta  irrep_nelec = [2, 0, 0, 1, 0, 0, 0, 0, 0, 0, 0, 0, 0, 0, 0, 0, 0, 0, 0, 0, 0, 0, 0, 0, 0, 0, 0, 0]
alpha-A1g nocc = 2  HOMO = -1.40433194373618  LUMO = 0.09268632135656
   mo_energy = [-2.06753696e+01 -1.40433194e+00  9.26863214e-02  3.12347658e-01
  5.05938367e-01  9.27131428e-01  1.71661946e+00  1.73238151e+00
  2.14492022e+00  4.44337038e+00  4.64047153e+00  5.01721134e+00
  7.16094367e+00  9.85391144e+00  9.88261113e+00  1.37255763e+01
  1.67929368e+01  2.12492357e+01  2.13154083e+01  3.83119619e+01
  3.90576267e+01  4.69805963e+01  4.71406622e+01  1.71722759e+02]
alpha-E1gx nocc = 0
   mo_energy = [ 0.31035745  0.92023049  1.71533692  2.13185577  4.44036351  4.62294317
  7.15958099  9.8346043   9.87637738 16.79060396 21.24271782 21.29439114
 39.05461697 46.97463815 47.12294655]
alpha-E1gy nocc = 0
   mo_energy = [ 0.31035745  0.92023049  1.71533692  2.13185577  4.44036351  4.62294317
  7.15958099  9.8346043   9.87637738 16.79060396 21.24271782 21.29439114
 39.05461697 46.97463815 47.12294655]
alpha-A1u nocc = 1  HOMO = -0.601358527523011  LUMO = 0.0670376558778892
   mo_energy = [-0.60135853  0.06703766  0.28504852  0.69374238  0.84922724  1.94050099
  2.14108487  3.41890453  4.35144195  5.00748847  8.22314386  9.06783329
 10.12201011 11.49811336 18.31442592 18.75203096 27.35818741 31.32299556
 39.85890008 41.62409705]
alpha-E1uy nocc = 1  HOMO = -0.692593665639871  LUMO = 0.0644533612497726
   mo_energy = [-0.69259367  0.06445336  0.27396899  0.69257447  0.82238496  1.93718664
  2.09470891  3.41767564  4.34527323  4.94187191  8.22067542  9.05899833
 10.12087878 11.42050607 18.31069038 18.74166372 27.35618975 31.26177358
 39.84921911 41.61985447]
alpha-E1ux nocc = 1  HOMO = -0.692593665639883  LUMO = 0.0644533612497717
   mo_energy = [-0.69259367  0.06445336  0.27396899  0.69257447  0.82238496  1.93718664
  2.09470891  3.41767564  4.34527323  4.94187191  8.22067542  9.05899833
 10.12087878 11.42050607 18.31069038 18.74166372 27.35618975 31.26177358
 39.84921911 41.61985447]
alpha-E2gx nocc = 0
   mo_energy = [ 0.3045061   0.90059916  1.71150542  2.09501859  4.43137705  4.57237135
  7.15549704  9.77590648  9.86048207 16.7836106  21.21841439 21.23759735
 39.04559119 46.95678408 47.07065974]
alpha-E2gy nocc = 0
   mo_energy = [ 0.3045061   0.90059916  1.71150542  2.09501859  4.43137705  4.57237135
  7.15549704  9.77590648  9.86048207 16.7836106  21.21841439 21.23759735
 39.04559119 46.95678408 47.07065974]
alpha-E3gx nocc = 0
   mo_energy = [ 1.70517989  4.41650925  7.14870403  9.835659   16.7719718  21.19714393
 39.03055945 46.92711199]
alpha-E3gy nocc = 0
   mo_energy = [ 1.70517989  4.41650925  7.14870403  9.835659   16.7719718  21.19714393
 39.03055945 46.92711199]
alpha-E2uy nocc = 0
   mo_energy = [ 0.68911378  1.92758663  3.41399549  4.32681211  8.21327791  9.032503
 10.11748809 18.29949139 18.71061052 27.35019938 39.82021106 41.60713467]
alpha-E2ux nocc = 0
   mo_energy = [ 0.68911378  1.92758663  3.41399549  4.32681211  8.21327791  9.032503
 10.11748809 18.29949139 18.71061052 27.35019938 39.82021106 41.60713467]
alpha-E3uy nocc = 0
   mo_energy = [ 0.6832648   1.91075583  3.40788336  4.2955032   8.20097444  8.98827288
 10.11184797 18.28085137 18.65900673 27.34022408 39.77197712 41.58596122]
alpha-E3ux nocc = 0
   mo_energy = [ 0.6832648   1.91075583  3.40788336  4.2955032   8.20097444  8.98827288
 10.11184797 18.28085137 18.65900673 27.34022408 39.77197712 41.58596122]
alpha-E4gx nocc = 0
   mo_energy = [ 1.69643868  4.39585998  7.13922211  9.80165058 16.75571259 21.15409761
 39.0095385  46.88501515]
alpha-E4gy nocc = 0
   mo_energy = [ 1.69643868  4.39585998  7.13922211  9.80165058 16.75571259 21.15409761
 39.0095385  46.88501515]
alpha-E5gx nocc = 0
   mo_energy = [ 7.12707895 16.73486757 38.98255167]
alpha-E5gy nocc = 0
   mo_energy = [ 7.12707895 16.73486757 38.98255167]
alpha-E4uy nocc = 0
   mo_energy = [ 3.39937052  8.1838027  10.10397471 18.25480609 27.32627678 41.55637254]
alpha-E4ux nocc = 0
   mo_energy = [ 3.39937052  8.1838027  10.10397471 18.25480609 27.32627678 41.55637254]
alpha-E5uy nocc = 0
   mo_energy = [ 3.38849912  8.16181389 10.09389063 18.22140067 27.30837546 41.51842086]
alpha-E5ux nocc = 0
   mo_energy = [ 3.38849912  8.16181389 10.09389063 18.22140067 27.30837546 41.51842086]
alpha-E6gx nocc = 0
   mo_energy = [ 7.11230939 16.70948057 38.94962873]
alpha-E6gy nocc = 0
   mo_energy = [ 7.11230939 16.70948057 38.94962873]
alpha-E6uy nocc = 0
   mo_energy = [10.08162365 27.28654308]
alpha-E6ux nocc = 0
   mo_energy = [10.08162365 27.28654308]
alpha-E7uy nocc = 0
   mo_energy = [10.06720673 27.26080739]
alpha-E7ux nocc = 0
   mo_energy = [10.06720673 27.26080739]
beta-A1g nocc = 2  HOMO = -1.0814361679506  LUMO = 0.0993236610511891
   mo_energy = [-2.06039862e+01 -1.08143617e+00  9.93236611e-02  3.14605741e-01
  5.33113140e-01  9.46009221e-01  1.71927861e+00  1.78538701e+00
  2.18899262e+00  4.45542880e+00  4.69381868e+00  5.08390105e+00
  7.16694811e+00  9.89356530e+00  9.91614891e+00  1.37835757e+01
  1.68066302e+01  2.12796797e+01  2.13523415e+01  3.83462159e+01
  3.90767367e+01  4.70060916e+01  4.71640076e+01  1.71732853e+02]
beta-E1gx nocc = 0
   mo_energy = [ 0.31360662  0.94633499  1.71826587  2.19119158  4.45344974  4.69491941
  7.16580041  9.89050551  9.91101696 16.80472972 21.27570214 21.34182862
 39.07427472 47.00172338 47.15285987]
beta-E1gy nocc = 0
   mo_energy = [ 0.31360662  0.94633499  1.71826587  2.19119158  4.45344974  4.69491941
  7.16580041  9.89050551  9.91101696 16.80472972 21.27570214 21.34182862
 39.07427472 47.00172338 47.15285987]
beta-A1u nocc = 1  HOMO = -0.525049586649467  LUMO = 0.0676268067828633
   mo_energy = [-0.52504959  0.06762681  0.28993501  0.69527342  0.86270166  1.95170283
  2.1623675   3.42263019  4.37820632  5.0335268   8.2353134   9.10514668
 10.12757735 11.52482517 18.3357884  18.78915304 27.37184666 31.3405259
 39.88769737 41.64739023]
beta-E1uy nocc = 0
   mo_energy = [ 0.04716416  0.1113094   0.33809843  0.69438008  0.91421008  1.95003143
  2.19951721  3.42161009  4.37555175  5.04210412  8.23342354  9.1009403
 10.12659256 11.50582147 18.33297148 18.78317002 27.37015532 31.31472928
 39.88127676 41.64409447]
beta-E1ux nocc = 0
   mo_energy = [ 0.04716416  0.1113094   0.33809843  0.69438008  0.91421008  1.95003143
  2.19951721  3.42161009  4.37555175  5.04210412  8.23342354  9.1009403
 10.12659256 11.50582147 18.33297148 18.78317002 27.37015532 31.31472928
 39.88127676 41.64409447]
beta-E2gx nocc = 0
   mo_energy = [ 0.31099932  0.94930922  1.71523134  2.20163178  4.44749256  4.69791322
  7.16235986  9.88102848  9.89638697 16.79903149 21.26382235 21.31070707
 39.06689129 46.98861128 47.11982423]
beta-E2gy nocc = 0
   mo_energy = [ 0.31099932  0.94930922  1.71523134  2.20163178  4.44749256  4.69791322
  7.16235986  9.88102848  9.89638697 16.79903149 21.26382235 21.31070707
 39.06689129 46.98861128 47.11982423]
beta-E3gx nocc = 0
   mo_energy = [ 1.7101887   4.43751117  7.15663403  9.87559175 16.78954522 21.2445836
 39.05459368 46.96669997]
beta-E3gy nocc = 0
   mo_energy = [ 1.7101887   4.43751117  7.15663403  9.87559175 16.78954522 21.2445836
 39.05459368 46.96669997]
beta-E2uy nocc = 0
   mo_energy = [ 0.69169416  1.94493626  3.41855326  4.36753718  8.22775725  9.08830276
 10.12364048 18.32452491 18.76523467 27.3650832  39.86203277 41.63421163]
beta-E2ux nocc = 0
   mo_energy = [ 0.69169416  1.94493626  3.41855326  4.36753718  8.22775725  9.08830276
 10.12364048 18.32452491 18.76523467 27.3650832  39.86203277 41.63421163]
beta-E3uy nocc = 0
   mo_energy = [ 0.68720299  1.93625131  3.41347008  4.35398579  8.21832446  9.0671694
 10.11872788 18.3104613  18.73538689 27.35663601 39.83001808 41.61775493]
beta-E3ux nocc = 0
   mo_energy = [ 0.68720299  1.93625131  3.41347008  4.35398579  8.21832446  9.0671694
 10.11872788 18.3104613  18.73538689 27.35663601 39.83001808 41.61775493]
beta-E4gx nocc = 0
   mo_energy = [ 1.70316963  4.42347817  7.14863543  9.85346992 16.77628698 21.21508471
 39.03739401 46.93560989]
beta-E4gy nocc = 0
   mo_energy = [ 1.70316963  4.42347817  7.14863543  9.85346992 16.77628698 21.21508471
 39.03739401 46.93560989]
beta-E5gx nocc = 0
   mo_energy = [ 7.13838137 16.75927914 39.0153092 ]
beta-E5gy nocc = 0
   mo_energy = [ 7.13838137 16.75927914 39.0153092 ]
beta-E4uy nocc = 0
   mo_energy = [ 3.40637763  8.20514166 10.11186596 18.29080153 27.34482325 41.5947463 ]
beta-E4ux nocc = 0
   mo_energy = [ 3.40637763  8.20514166 10.11186596 18.29080153 27.34482325 41.5947463 ]
beta-E5uy nocc = 0
   mo_energy = [ 3.39729939  8.18823187 10.10307015 18.26557476 27.32965813 41.5652162 ]
beta-E5ux nocc = 0
   mo_energy = [ 3.39729939  8.18823187 10.10307015 18.26557476 27.32965813 41.5652162 ]
beta-E6gx nocc = 0
   mo_energy = [ 7.12589374 16.73855014 38.98836094]
beta-E6gy nocc = 0
   mo_energy = [ 7.12589374 16.73855014 38.98836094]
beta-E6uy nocc = 0
   mo_energy = [10.09235989 27.31115757]
beta-E6ux nocc = 0
   mo_energy = [10.09235989 27.31115757]
beta-E7uy nocc = 0
   mo_energy = [10.0797583 27.2893421]
beta-E7ux nocc = 0
   mo_energy = [10.0797583 27.2893421]
multiplicity <S^2> = 2.0051037  2S+1 = 3.0034006
E1 = -103.20489706197898  Ecoul = 28.38656030241257
cycle= 3 E= -74.8183367595664  delta_E= -0.00304  |g|= 0.0257  |ddm|= 0.0388
    CPU time for cycle= 3      7.30 sec, wall time      7.44 sec
diis-norm(errvec)=0.0950524
diis-c [-0.00407319 -0.07758    -0.02543633  1.10301633]
alpha HOMO (A1u) = -0.607633201982753  LUMO (E1ux) = 0.0644105157152708
alpha irrep_nelec = [2, 0, 0, 1, 1, 1, 0, 0, 0, 0, 0, 0, 0, 0, 0, 0, 0, 0, 0, 0, 0, 0, 0, 0, 0, 0, 0, 0]
beta  irrep_nelec = [2, 0, 0, 1, 0, 0, 0, 0, 0, 0, 0, 0, 0, 0, 0, 0, 0, 0, 0, 0, 0, 0, 0, 0, 0, 0, 0, 0]
alpha-A1g nocc = 2  HOMO = -1.41417092875781  LUMO = 0.093274268250798
   mo_energy = [-2.07048186e+01 -1.41417093e+00  9.32742683e-02  3.13133205e-01
  5.06263970e-01  9.28452616e-01  1.71787567e+00  1.73060928e+00
  2.14394767e+00  4.44453643e+00  4.63610142e+00  5.01140064e+00
  7.16252626e+00  9.84516034e+00  9.87944401e+00  1.37128245e+01
  1.67907363e+01  2.12387206e+01  2.12999575e+01  3.82902125e+01
  3.90457823e+01  4.69616385e+01  4.71179362e+01  1.71690651e+02]
alpha-E1gx nocc = 0
   mo_energy = [ 0.31107357  0.9213117   1.71654196  2.13038248  4.4414659   4.61823339
  7.16113477  9.82564864  9.87350024 16.78841466 21.23223344 21.2795314
 39.04285695 46.9559022  47.10086777]
alpha-E1gy nocc = 0
   mo_energy = [ 0.31107357  0.9213117   1.71654196  2.13038248  4.4414659   4.61823339
  7.16113477  9.82564864  9.87350024 16.78841466 21.23223344 21.2795314
 39.04285695 46.9559022  47.10086777]
alpha-A1u nocc = 1  HOMO = -0.607633201982753  LUMO = 0.0671266931176019
   mo_energy = [-0.6076332   0.06712669  0.28520492  0.69451837  0.84884717  1.94188977
  2.13883171  3.42046862  4.35100176  5.00127881  8.22359368  9.06280716
 10.12337801 11.48501445 18.30886361 18.74030532 27.3530745  31.29977228
 39.83939203 41.60865543]
alpha-E1uy nocc = 1  HOMO = -0.706776436780789  LUMO = 0.0644105157152776
   mo_energy = [-0.70677644  0.06441052  0.27355708  0.69329875  0.82069337  1.93846777
  2.09092211  3.41919787  4.34472498  4.93492497  8.22109825  9.05397745
 10.12222807 11.40825278 18.30517417 18.73014045 27.35110728 31.2402952
 39.83004699 41.60455126]
alpha-E1ux nocc = 1  HOMO = -0.706776436780795  LUMO = 0.0644105157152708
   mo_energy = [-0.70677644  0.06441052  0.27355708  0.69329875  0.82069337  1.93846777
  2.09092211  3.41919787  4.34472498  4.93492497  8.22109825  9.05397745
 10.12222807 11.40825278 18.30517417 18.73014045 27.35110728 31.2402952
 39.83004699 41.60455126]
alpha-E2gx nocc = 0
   mo_energy = [ 0.30509842  0.90125881  1.71255959  2.0924473   4.43229763  4.56693773
  7.15696591  9.76725618  9.85775486 16.78145721 21.20661965 21.22604938
 39.03408661 46.93871892 47.05058859]
alpha-E2gy nocc = 0
   mo_energy = [ 0.30509842  0.90125881  1.71255959  2.0924473   4.43229763  4.56693773
  7.15696591  9.76725618  9.85775486 16.78145721 21.20661965 21.22604938
 39.03408661 46.93871892 47.05058859]
alpha-E3gx nocc = 0
   mo_energy = [ 1.7059962   4.41715666  7.15003633  9.83299256 16.76988597 21.18809448
 39.01948794 46.91017617]
alpha-E3gy nocc = 0
   mo_energy = [ 1.7059962   4.41715666  7.15003633  9.83299256 16.76988597 21.18809448
 39.01948794 46.91017617]
alpha-E2uy nocc = 0
   mo_energy = [ 0.68969614  1.9286213   3.41539415  4.32596883  8.21362361  9.0275275
 10.11878251 18.2941184  18.69972412 27.34520958 39.80206694 41.59225014]
alpha-E2ux nocc = 0
   mo_energy = [ 0.68969614  1.9286213   3.41539415  4.32596883  8.21362361  9.0275275
 10.11878251 18.2941184  18.69972412 27.34520958 39.80206694 41.59225014]
alpha-E3uy nocc = 0
   mo_energy = [ 0.68362464  1.91137548  3.40908269  4.29423472  8.20120435  8.98347528
 10.11305394 18.27573334 18.64927899 27.33539325 39.75561268 41.57178596]
alpha-E3ux nocc = 0
   mo_energy = [ 0.68362464  1.91137548  3.40908269  4.29423472  8.20120435  8.98347528
 10.11305394 18.27573334 18.64927899 27.33539325 39.75561268 41.57178596]
alpha-E4gx nocc = 0
   mo_energy = [ 1.69694783  4.39617728  7.14037349  9.79912098 16.75373739 21.14606057
 38.99908874 46.86971753]
alpha-E4gy nocc = 0
   mo_energy = [ 1.69694783  4.39617728  7.14037349  9.79912098 16.75373739 21.14606057
 38.99908874 46.86971753]
alpha-E5gx nocc = 0
   mo_energy = [ 7.12801511 16.73306186 38.97292765]
alpha-E5gy nocc = 0
   mo_energy = [ 7.12801511 16.73306186 38.97292765]
alpha-E4uy nocc = 0
   mo_energy = [ 3.40030439  8.18389691 10.10506308 18.25007902 27.32167798 41.5432144 ]
alpha-E4ux nocc = 0
   mo_energy = [ 3.40030439  8.18389691 10.10506308 18.25007902 27.32167798 41.5432144 ]
alpha-E5uy nocc = 0
   mo_energy = [ 3.38911438  8.16177803 10.09483836 18.21723453 27.30409114 41.50661193]
alpha-E5ux nocc = 0
   mo_energy = [ 3.38911438  8.16177803 10.09483836 18.21723453 27.30409114 41.50661193]
alpha-E6gx nocc = 0
   mo_energy = [ 7.11300855 16.70792314 38.941054  ]
alpha-E6gy nocc = 0
   mo_energy = [ 7.11300855 16.70792314 38.941054  ]
alpha-E6uy nocc = 0
   mo_energy = [10.08241526 27.28266765]
alpha-E6ux nocc = 0
   mo_energy = [10.08241526 27.28266765]
alpha-E7uy nocc = 0
   mo_energy = [10.06783574 27.25744976]
alpha-E7ux nocc = 0
   mo_energy = [10.06783574 27.25744976]
beta-A1g nocc = 2  HOMO = -1.07912098123734  LUMO = 0.0994929541521784
   mo_energy = [-2.06309027e+01 -1.07912098e+00  9.94929542e-02  3.14550951e-01
  5.33807635e-01  9.44949001e-01  1.71972280e+00  1.78595998e+00
  2.18749960e+00  4.45555614e+00  4.69130848e+00  5.08131432e+00
  7.16783159e+00  9.88856387e+00  9.91168239e+00  1.37736236e+01
  1.68043798e+01  2.12705763e+01  2.13385277e+01  3.83261719e+01
  3.90656710e+01  4.69883581e+01  4.71423819e+01  1.71701643e+02]
beta-E1gx nocc = 0
   mo_energy = [ 0.31351483  0.94545821  1.71867955  2.19005166  4.4535996   4.6927359
  7.16667349  9.88560996  9.90693755 16.80252043 21.26680293 21.32859161
 39.06331449 46.98422717 47.13187381]
beta-E1gy nocc = 0
   mo_energy = [ 0.31351483  0.94545821  1.71867955  2.19005166  4.4535996   4.6927359
  7.16667349  9.88560996  9.90693755 16.80252043 21.26680293 21.32859161
 39.06331449 46.98422717 47.13187381]
beta-A1u nocc = 1  HOMO = -0.527532406522157  LUMO = 0.0677463605325315
   mo_energy = [-0.52753241  0.06774636  0.29041657  0.69544195  0.86317823  1.95163999
  2.16117621  3.42340592  4.37722187  5.02869146  8.23519753  9.10117653
 10.12841381 11.51355767 18.3307016  18.77912583 27.36695546 31.31892453
 39.86952291 41.6330334 ]
beta-E1uy nocc = 0
   mo_energy = [ 0.04649553  0.10992671  0.33745032  0.69451201  0.91316661  1.94998396
  2.19688522  3.42236121  4.37468789  5.03701005  8.23332638  9.09718513
 10.12742294 11.4958256  18.32798251 18.77345321 27.36531312 31.29483263
 39.86345827 41.62989963]
beta-E1ux nocc = 0
   mo_energy = [ 0.04649553  0.10992671  0.33745032  0.69451201  0.91316661  1.94998396
  2.19688522  3.42236121  4.37468789  5.03701005  8.23332638  9.09718513
 10.12742294 11.4958256  18.32798251 18.77345321 27.36531312 31.29483263
 39.86345827 41.62989963]
beta-E2gx nocc = 0
   mo_energy = [ 0.31083626  0.94903607  1.7155524   2.2013959   4.44770311  4.69642119
  7.16320233  9.87639621  9.89341238 16.7969469  21.25553994 21.29921876
 39.05624908 46.97182958 47.10079518]
beta-E2gy nocc = 0
   mo_energy = [ 0.31083626  0.94903607  1.7155524   2.2013959   4.44770311  4.69642119
  7.16320233  9.87639621  9.89341238 16.7969469  21.25553994 21.29921876
 39.05624908 46.97182958 47.10079518]
beta-E3gx nocc = 0
   mo_energy = [ 1.71035227  4.43780492  7.15742753  9.87398832 16.78767274 21.23735817
 39.0444866  46.95111889]
beta-E3gy nocc = 0
   mo_energy = [ 1.71035227  4.43780492  7.15742753  9.87398832 16.78767274 21.23735817
 39.0444866  46.95111889]
beta-E2uy nocc = 0
   mo_energy = [ 0.69171805  1.94493852  3.41923094  4.36702496  8.22771731  9.08518855
 10.1244531  18.31983172 18.75645729 27.36038894 39.84529327 41.62050499]
beta-E2ux nocc = 0
   mo_energy = [ 0.69171805  1.94493852  3.41923094  4.36702496  8.22771731  9.08518855
 10.1244531  18.31983172 18.75645729 27.36038894 39.84529327 41.62050499]
beta-E3uy nocc = 0
   mo_energy = [ 0.68704147  1.9362994   3.41402657  4.35400857  8.21838334  9.065107
 10.11951247 18.30626862 18.72820243 27.35219143 39.81511385 41.60486953]
beta-E3ux nocc = 0
   mo_energy = [ 0.68704147  1.9362994   3.41402657  4.35400857  8.21838334  9.065107
 10.11951247 18.30626862 18.72820243 27.35219143 39.81511385 41.60486953]
beta-E4gx nocc = 0
   mo_energy = [ 1.70310955  4.42386447  7.14936459  9.85262301 16.77472043 21.2092898
 39.02804685 46.92176311]
beta-E4gy nocc = 0
   mo_energy = [ 1.70310955  4.42386447  7.14936459  9.85262301 16.77472043 21.2092898
 39.02804685 46.92176311]
beta-E5gx nocc = 0
   mo_energy = [ 7.13903491 16.75812117 39.00695744]
beta-E5gy nocc = 0
   mo_energy = [ 7.13903491 16.75812117 39.00695744]
beta-E4uy nocc = 0
   mo_energy = [ 3.406767    8.2053462  10.1126146  18.28732546 27.34073474 41.58302658]
beta-E4ux nocc = 0
   mo_energy = [ 3.406767    8.2053462  10.1126146  18.28732546 27.34073474 41.58302658]
beta-E5uy nocc = 0
   mo_energy = [ 3.39747819  8.1886362  10.1037781  18.26304722 27.32603859 41.5550226 ]
beta-E5ux nocc = 0
   mo_energy = [ 3.39747819  8.1886362  10.1037781  18.26304722 27.32603859 41.5550226 ]
beta-E6gx nocc = 0
   mo_energy = [ 7.12646547 16.73791468 38.98125373]
beta-E6gy nocc = 0
   mo_energy = [ 7.12646547 16.73791468 38.98125373]
beta-E6uy nocc = 0
   mo_energy = [10.09302642 27.30812816]
beta-E6ux nocc = 0
   mo_energy = [10.09302642 27.30812816]
beta-E7uy nocc = 0
   mo_energy = [10.08038745 27.28703405]
beta-E7ux nocc = 0
   mo_energy = [10.08038745 27.28703405]
multiplicity <S^2> = 2.0073254  2S+1 = 3.0048796
E1 = -103.24923773725266  Ecoul = 28.430361587695998
cycle= 4 E= -74.8188761495567  delta_E= -0.000539  |g|= 0.00882  |ddm|= 0.0155
    CPU time for cycle= 4      6.90 sec, wall time      6.96 sec
diis-norm(errvec)=0.0310348
diis-c [-3.26130068e-04  3.90070398e-02  1.03043814e-02 -7.09954637e-01
  1.66064322e+00]
alpha HOMO (A1u) = -0.61020604170413  LUMO (E1ux) = 0.0643174555488469
alpha irrep_nelec = [2, 0, 0, 1, 1, 1, 0, 0, 0, 0, 0, 0, 0, 0, 0, 0, 0, 0, 0, 0, 0, 0, 0, 0, 0, 0, 0, 0]
beta  irrep_nelec = [2, 0, 0, 1, 0, 0, 0, 0, 0, 0, 0, 0, 0, 0, 0, 0, 0, 0, 0, 0, 0, 0, 0, 0, 0, 0, 0, 0]
alpha-A1g nocc = 2  HOMO = -1.41760640255939  LUMO = 0.0932651799867721
   mo_energy = [-2.07077699e+01 -1.41760640e+00  9.32651800e-02  3.13360339e-01
  5.06052501e-01  9.28888684e-01  1.71815277e+00  1.72962827e+00
  2.14347698e+00  4.44443122e+00  4.63433235e+00  5.00950176e+00
  7.16244814e+00  9.84252476e+00  9.87815370e+00  1.37104414e+01
  1.67894303e+01  2.12360977e+01  2.12971347e+01  3.82881129e+01
  3.90431423e+01  4.69587953e+01  4.71154234e+01  1.71689111e+02]
alpha-E1gx nocc = 0
   mo_energy = [ 0.31122766  0.92161284  1.71677576  2.12975445  4.44131041  4.61639497
  7.1610297   9.82307865  9.87219335 16.78710242 21.22967158 21.27692256
 39.04024955 46.95315772 47.09864514]
alpha-E1gy nocc = 0
   mo_energy = [ 0.31122766  0.92161284  1.71677576  2.12975445  4.44131041  4.61639497
  7.1610297   9.82307865  9.87219335 16.78710242 21.22967158 21.27692256
 39.04024955 46.95315772 47.09864514]
alpha-A1u nocc = 1  HOMO = -0.61020604170413  LUMO = 0.067150684263803
   mo_energy = [-0.61020604  0.06715068  0.28512318  0.6947301   0.84846811  1.94212235
  2.13795188  3.4206855   4.35044612  4.99960151  8.22307949  9.06097741
 10.12314045 11.48246463 18.30693953 18.73755831 27.35120868 31.29719984
 39.83661129 41.60579675]
alpha-E1uy nocc = 1  HOMO = -0.71069895034257  LUMO = 0.0643174555488482
   mo_energy = [-0.71069895  0.06431746  0.27307997  0.69346584  0.81967192  1.9386267
  2.08940233  3.41937916  4.34410998  4.93301603  8.22055548  9.0521502
 10.12197113 11.40622198 18.30326098 18.7274845  27.34924724 31.2386005
 39.82741672 41.6017515 ]
alpha-E1ux nocc = 1  HOMO = -0.710698950342589  LUMO = 0.0643174555488469
   mo_energy = [-0.71069895  0.06431746  0.27307997  0.69346584  0.81967192  1.9386267
  2.08940233  3.41937916  4.34410998  4.93301603  8.22055548  9.0521502
 10.12197113 11.40622198 18.30326098 18.7274845  27.34924724 31.2386005
 39.82741672 41.6017515 ]
alpha-E2gx nocc = 0
   mo_energy = [ 0.3050908   0.90132809  1.71266591  2.09151581  4.43199956  4.56500347
  7.15678144  9.76504451  9.85638955 16.78012801 21.2045367  21.22390645
 39.03157862 46.93627398 47.04929677]
alpha-E2gy nocc = 0
   mo_energy = [ 0.3050908   0.90132809  1.71266591  2.09151581  4.43199956  4.56500347
  7.15678144  9.76504451  9.85638955 16.78012801 21.2045367  21.22390645
 39.03157862 46.93627398 47.04929677]
alpha-E3gx nocc = 0
   mo_energy = [ 1.70590306  4.41664727  7.14972439  9.83159218 16.76853505 21.18602779
 39.01715108 46.90823477]
alpha-E3gy nocc = 0
   mo_energy = [ 1.70590306  4.41664727  7.14972439  9.83159218 16.76853505 21.18602779
 39.01715108 46.90823477]
alpha-E2uy nocc = 0
   mo_energy = [ 0.68973654  1.92859308  3.41547074  4.32519459  8.21299866  9.02573267
 10.11846831 18.29224184 18.69736494 27.34336799 39.79990282 41.58962964]
alpha-E2ux nocc = 0
   mo_energy = [ 0.68973654  1.92859308  3.41547074  4.32519459  8.21299866  9.02573267
 10.11846831 18.29224184 18.69736494 27.34336799 39.79990282 41.58962964]
alpha-E3uy nocc = 0
   mo_energy = [ 0.68346549  1.91104801  3.40899156  4.29325982  8.20045407  8.9818197
 10.11264722 18.27393097 18.64748981 27.33358603 39.7542729  41.56947267]
alpha-E3ux nocc = 0
   mo_energy = [ 0.68346549  1.91104801  3.40899156  4.29325982  8.20045407  8.9818197
 10.11264722 18.27393097 18.64748981 27.33358603 39.7542729  41.56947267]
alpha-E4gx nocc = 0
   mo_energy = [ 1.69659974  4.39541452  7.13989306  9.79775351 16.75236961 21.14446154
 38.99700271 46.86852686]
alpha-E4gy nocc = 0
   mo_energy = [ 1.69659974  4.39541452  7.13989306  9.79775351 16.75236961 21.14446154
 38.99700271 46.86852686]
alpha-E5gx nocc = 0
   mo_energy = [ 7.1273348  16.73169525 38.97118328]
alpha-E5gy nocc = 0
   mo_energy = [ 7.1273348  16.73169525 38.97118328]
alpha-E4uy nocc = 0
   mo_energy = [ 3.39999225  8.18299506 10.10453288 18.24840774 27.31992643 41.54134881]
alpha-E4ux nocc = 0
   mo_energy = [ 3.39999225  8.18299506 10.10453288 18.24840774 27.31992643 41.54134881]
alpha-E5uy nocc = 0
   mo_energy = [ 3.38854081  8.16072096 10.09415949 18.21577792 27.30242396 41.50535188]
alpha-E5ux nocc = 0
   mo_energy = [ 3.38854081  8.16072096 10.09415949 18.21577792 27.30242396 41.50535188]
alpha-E6gx nocc = 0
   mo_energy = [ 7.1121088 16.7065921 38.9397561]
alpha-E6gy nocc = 0
   mo_energy = [ 7.1121088 16.7065921 38.9397561]
alpha-E6uy nocc = 0
   mo_energy = [10.08156974 27.28112291]
alpha-E6ux nocc = 0
   mo_energy = [10.08156974 27.28112291]
alpha-E7uy nocc = 0
   mo_energy = [10.06681395 27.25607667]
alpha-E7ux nocc = 0
   mo_energy = [10.06681395 27.25607667]
beta-A1g nocc = 2  HOMO = -1.07652110460922  LUMO = 0.0994343904936618
   mo_energy = [-2.06301865e+01 -1.07652110e+00  9.94343905e-02  3.14344675e-01
  5.33837918e-01  9.43911220e-01  1.71956565e+00  1.78617235e+00
  2.18682623e+00  4.45485364e+00  4.69130919e+00  5.08134995e+00
  7.16734322e+00  9.88771690e+00  9.91107162e+00  1.37732880e+01
  1.68030994e+01  2.12691004e+01  2.13374832e+01  3.83256987e+01
  3.90637120e+01  4.69866619e+01  4.71410585e+01  1.71701298e+02]
beta-E1gx nocc = 0
   mo_energy = [ 0.31330525  0.94456424  1.71849468  2.18948052  4.45287532  4.69268363
  7.16616516  9.8847984   9.90625896 16.80123778 21.26537432 21.32765752
 39.06138537 46.98261136 47.13076056]
beta-E1gy nocc = 0
   mo_energy = [ 0.31330525  0.94456424  1.71849468  2.18948052  4.45287532  4.69268363
  7.16616516  9.8847984   9.90625896 16.80123778 21.26537432 21.32765752
 39.06138537 46.98261136 47.13076056]
beta-A1u nocc = 1  HOMO = -0.52411444608899  LUMO = 0.0678564983665896
   mo_energy = [-0.52411445  0.0678565   0.29095072  0.69535699  0.8641466   1.95102635
  2.16201336  3.42317911  4.37640812  5.02895531  8.2343597   9.10032005
 10.1278654  11.51310485 18.32921399 18.77794252 27.36530701 31.318148
 39.86806804 41.63115105]
beta-E1uy nocc = 0
   mo_energy = [ 0.04616416  0.10950615  0.33747556  0.6944001   0.91309148  1.94935047
  2.19643656  3.42210872  4.37385981  5.03638046  8.23247144  9.09633211
 10.12685933 11.49525133 18.32650813 18.77232936 27.36367162 31.29446762
 39.86211722 41.62806814]
beta-E1ux nocc = 0
   mo_energy = [ 0.04616416  0.10950615  0.33747556  0.6944001   0.91309148  1.94935047
  2.19643656  3.42210872  4.37385981  5.03638046  8.23247144  9.09633211
 10.12685933 11.49525133 18.32650813 18.77232936 27.36367162 31.29446762
 39.86211722 41.62806814]
beta-E2gx nocc = 0
   mo_energy = [ 0.31058343  0.94822939  1.71528353  2.2005314   4.4469093   4.69585261
  7.16263469  9.87563658  9.89250964 16.79565852 21.2542539  21.2986508
 39.05441059 46.97045673 47.10034889]
beta-E2gy nocc = 0
   mo_energy = [ 0.31058343  0.94822939  1.71528353  2.2005314   4.4469093   4.69585261
  7.16263469  9.87563658  9.89250964 16.79565852 21.2542539  21.2986508
 39.05441059 46.97045673 47.10034889]
beta-E3gx nocc = 0
   mo_energy = [ 1.70994157  4.43688528  7.156763    9.87286531 16.78637813 21.23625547
 39.04280255 46.95015657]
beta-E3gy nocc = 0
   mo_energy = [ 1.70994157  4.43688528  7.156763    9.87286531 16.78637813 21.23625547
 39.04280255 46.95015657]
beta-E2uy nocc = 0
   mo_energy = [ 0.69152507  1.94423557  3.41890183  4.36613575  8.22681185  9.08433834
 10.12384436 18.31839859 18.75551691 27.35876897 39.84430107 41.61882759]
beta-E2ux nocc = 0
   mo_energy = [ 0.69152507  1.94423557  3.41890183  4.36613575  8.22681185  9.08433834
 10.12384436 18.31839859 18.75551691 27.35876897 39.84430107 41.61882759]
beta-E3uy nocc = 0
   mo_energy = [ 0.68670684  1.93542994  3.4135712   4.35295311  8.21739653  9.06423963
 10.1188301  18.30490948 18.72758599 27.35060963 39.81472753 41.60345394]
beta-E3ux nocc = 0
   mo_energy = [ 0.68670684  1.93542994  3.4135712   4.35295311  8.21739653  9.06423963
 10.1188301  18.30490948 18.72758599 27.35060963 39.81472753 41.60345394]
beta-E4gx nocc = 0
   mo_energy = [ 1.70249959  4.42275711  7.1485685   9.85150096 16.77342403 21.20852009
 39.02658613 46.92140378]
beta-E4gy nocc = 0
   mo_energy = [ 1.70249959  4.42275711  7.1485685   9.85150096 16.77342403 21.20852009
 39.02658613 46.92140378]
beta-E5gx nocc = 0
   mo_energy = [ 7.13807658 16.75683426 39.00579597]
beta-E5gy nocc = 0
   mo_energy = [ 7.13807658 16.75683426 39.00579597]
beta-E4uy nocc = 0
   mo_energy = [ 3.40613793  8.20425158 10.11183239 18.2860809  27.33921117 41.581988  ]
beta-E4ux nocc = 0
   mo_energy = [ 3.40613793  8.20425158 10.11183239 18.2860809  27.33921117 41.581988  ]
beta-E5uy nocc = 0
   mo_energy = [ 3.39663109  8.18741366 10.10287304 18.26196894 27.32459801 41.55448668]
beta-E5ux nocc = 0
   mo_energy = [ 3.39663109  8.18741366 10.10287304 18.26196894 27.32459801 41.55448668]
beta-E6gx nocc = 0
   mo_energy = [ 7.12531919 16.73665721 38.98047643]
beta-E6gy nocc = 0
   mo_energy = [ 7.12531919 16.73665721 38.98047643]
beta-E6uy nocc = 0
   mo_energy = [10.09197944 27.30680138]
beta-E6ux nocc = 0
   mo_energy = [10.09197944 27.30680138]
beta-E7uy nocc = 0
   mo_energy = [10.07918414 27.28585908]
beta-E7ux nocc = 0
   mo_energy = [10.07918414 27.28585908]
multiplicity <S^2> = 2.0087869  2S+1 = 3.0058522
E1 = -103.2540034853405  Ecoul = 28.43503405768951
cycle= 5 E= -74.818969427651  delta_E= -9.33e-05  |g|= 0.0022  |ddm|= 0.00796
    CPU time for cycle= 5      7.25 sec, wall time      7.32 sec
diis-norm(errvec)=0.00830397
diis-c [-1.08897730e-05 -5.72630751e-03 -1.33756935e-03  1.97008970e-01
 -7.22448490e-01  1.53250340e+00]
alpha HOMO (A1u) = -0.611218463410157  LUMO (E1ux) = 0.0643187559821083
alpha irrep_nelec = [2, 0, 0, 1, 1, 1, 0, 0, 0, 0, 0, 0, 0, 0, 0, 0, 0, 0, 0, 0, 0, 0, 0, 0, 0, 0, 0, 0]
beta  irrep_nelec = [2, 0, 0, 1, 0, 0, 0, 0, 0, 0, 0, 0, 0, 0, 0, 0, 0, 0, 0, 0, 0, 0, 0, 0, 0, 0, 0, 0]
alpha-A1g nocc = 2  HOMO = -1.41818438807885  LUMO = 0.0932979071902856
   mo_energy = [-2.07074156e+01 -1.41818439e+00  9.32979072e-02  3.13441404e-01
  5.06091109e-01  9.29102505e-01  1.71823786e+00  1.72959185e+00
  2.14350440e+00  4.44452063e+00  4.63414649e+00  5.00950084e+00
  7.16251037e+00  9.84240861e+00  9.87822253e+00  1.37106714e+01
  1.67895220e+01  2.12362391e+01  2.12972415e+01  3.82885784e+01
  3.90433888e+01  4.69591224e+01  4.71157572e+01  1.71689522e+02]
alpha-E1gx nocc = 0
   mo_energy = [ 0.31129184  0.92180656  1.71685311  2.12980647  4.44139866  4.61628719
  7.16109027  9.82306925  9.87227778 16.7872005  21.2298516  21.27714704
 39.04051129 46.95352026 47.09909196]
alpha-E1gy nocc = 0
   mo_energy = [ 0.31129184  0.92180656  1.71685311  2.12980647  4.44139866  4.61628719
  7.16109027  9.82306925  9.87227778 16.7872005  21.2298516  21.27714704
 39.04051129 46.95352026 47.09909196]
alpha-A1u nocc = 1  HOMO = -0.611218463410157  LUMO = 0.0671620097928443
   mo_energy = [-0.61121846  0.06716201  0.2851134   0.69479735  0.8483757   1.94225361
  2.13781458  3.42076279  4.35051209  4.99946875  8.22314973  9.06096848
 10.12319172 11.48242731 18.30705532 18.73764271 27.3513561  31.29739849
 39.83690626 41.6060753 ]
alpha-E1uy nocc = 1  HOMO = -0.711079248901047  LUMO = 0.0643187559821148
   mo_energy = [-0.71107925  0.06431876  0.27308514  0.6935235   0.81964938  1.93874915
  2.0894041   3.41945149  4.34418515  4.93313276  8.22062791  9.05217544
 10.12202184 11.40655759 18.30339135 18.72762263 27.34940216 31.23914798
 39.82776964 41.60205362]
alpha-E1ux nocc = 1  HOMO = -0.711079248901062  LUMO = 0.0643187559821083
   mo_energy = [-0.71107925  0.06431876  0.27308514  0.6935235   0.81964938  1.93874915
  2.0894041   3.41945149  4.34418515  4.93313276  8.22062791  9.05217544
 10.12202184 11.40655759 18.30339135 18.72762263 27.34940216 31.23914798
 39.82776964 41.60205362]
alpha-E2gx nocc = 0
   mo_energy = [ 0.30510412  0.90146447  1.71271999  2.09163665  4.43208344  4.565079
  7.15683684  9.76530389  9.85650988 16.78024498 21.20498128 21.22427585
 39.0318855  46.9367409  47.05004613]
alpha-E2gy nocc = 0
   mo_energy = [ 0.30510412  0.90146447  1.71271999  2.09163665  4.43208344  4.565079
  7.15683684  9.76530389  9.85650988 16.78024498 21.20498128 21.22427585
 39.0318855  46.9367409  47.05004613]
alpha-E3gx nocc = 0
   mo_energy = [ 1.70591848  4.41672093  7.14977052  9.83177257 16.76868188 21.18641665
 39.01753141 46.9088684 ]
alpha-E3gy nocc = 0
   mo_energy = [ 1.70591848  4.41672093  7.14977052  9.83177257 16.76868188 21.18641665
 39.01753141 46.9088684 ]
alpha-E2uy nocc = 0
   mo_energy = [ 0.68976608  1.92868958  3.41552809  4.32529424  8.21307703  9.02585493
 10.11851718 18.29241489 18.69765717 27.34354505 39.8004245  41.59000155]
alpha-E2ux nocc = 0
   mo_energy = [ 0.68976608  1.92868958  3.41552809  4.32529424  8.21307703  9.02585493
 10.11851718 18.29241489 18.69765717 27.34354505 39.8004245  41.59000155]
alpha-E3uy nocc = 0
   mo_energy = [ 0.68344641  1.91109177  3.40902361  4.29339121  8.20054027  8.98208474
 10.11269256 18.27417168 18.6480151  27.33379896 39.75505875 41.56995769]
alpha-E3ux nocc = 0
   mo_energy = [ 0.68344641  1.91109177  3.40902361  4.29339121  8.20054027  8.98208474
 10.11269256 18.27417168 18.6480151  27.33379896 39.75505875 41.56995769]
alpha-E4gx nocc = 0
   mo_energy = [ 1.69656092  4.39546486  7.13992486  9.79800921 16.75255481 21.14502835
 38.99748216 46.86938666]
alpha-E4gy nocc = 0
   mo_energy = [ 1.69656092  4.39546486  7.13992486  9.79800921 16.75255481 21.14502835
 38.99748216 46.86938666]
alpha-E5gx nocc = 0
   mo_energy = [ 7.12734578 16.73192386 38.97178373]
alpha-E5gy nocc = 0
   mo_energy = [ 7.12734578 16.73192386 38.97178373]
alpha-E4uy nocc = 0
   mo_energy = [ 3.3999881   8.18308784 10.10457228 18.24873588 27.32018738 41.5419855 ]
alpha-E4ux nocc = 0
   mo_energy = [ 3.3999881   8.18308784 10.10457228 18.24873588 27.32018738 41.5419855 ]
alpha-E5uy nocc = 0
   mo_energy = [ 3.38848861  8.16081456 10.09418958 18.21620605 27.3027429  41.50617205]
alpha-E5ux nocc = 0
   mo_energy = [ 3.38848861  8.16081456 10.09418958 18.21620605 27.3027429  41.50617205]
alpha-E6gx nocc = 0
   mo_energy = [ 7.11209059 16.70686466 38.94049463]
alpha-E6gy nocc = 0
   mo_energy = [ 7.11209059 16.70686466 38.94049463]
alpha-E6uy nocc = 0
   mo_energy = [10.08158586 27.28150695]
alpha-E6ux nocc = 0
   mo_energy = [10.08158586 27.28150695]
alpha-E7uy nocc = 0
   mo_energy = [10.06680986 27.25652943]
alpha-E7ux nocc = 0
   mo_energy = [10.06680986 27.25652943]
beta-A1g nocc = 2  HOMO = -1.07554720581297  LUMO = 0.0993949327027552
   mo_energy = [-2.06291416e+01 -1.07554721e+00  9.93949327e-02  3.14261613e-01
  5.33841813e-01  9.43736987e-01  1.71951123e+00  1.78639481e+00
  2.18703602e+00  4.45482459e+00  4.69191149e+00  5.08183572e+00
  7.16730737e+00  9.88823144e+00  9.91152122e+00  1.37740325e+01
  1.68032553e+01  2.12696572e+01  2.13382312e+01  3.83265165e+01
  3.90642103e+01  4.69873731e+01  4.71417916e+01  1.71701892e+02]
beta-E1gx nocc = 0
   mo_energy = [ 0.31322971  0.94439762  1.71843736  2.18962292  4.45284377  4.69319183
  7.16612811  9.88531     9.90667637 16.80139724 21.26594283 21.3284303
 39.06189408 46.98334375 47.13154701]
beta-E1gy nocc = 0
   mo_energy = [ 0.31322971  0.94439762  1.71843736  2.18962292  4.45284377  4.69319183
  7.16612811  9.88531     9.90667637 16.80139724 21.26594283 21.3284303
 39.06189408 46.98334375 47.13154701]
beta-A1u nocc = 1  HOMO = -0.521927803282455  LUMO = 0.0678958667412499
   mo_energy = [-0.5219278   0.06789587  0.291168    0.69531355  0.86461652  1.95093199
  2.16265233  3.42312783  4.37651111  5.02966332  8.23438766  9.1007361
 10.12784872 11.51387486 18.32953477 18.77858806 27.36556873 31.31890576
 39.8688112  41.63176924]
beta-E1uy nocc = 0
   mo_energy = [ 0.04617431  0.10962442  0.33761577  0.69435431  0.91325063  1.94925409
  2.19665405  3.42205479  4.37395408  5.03675475  8.23249954  9.09674405
 10.1268421  11.49589872 18.32683609 18.77298935 27.36393841 31.29526841
 39.8628893  41.62870137]
beta-E1ux nocc = 0
   mo_energy = [ 0.04617431  0.10962442  0.33761577  0.69435431  0.91325063  1.94925409
  2.19665405  3.42205479  4.37395408  5.03675475  8.23249954  9.09674405
 10.1268421  11.49589872 18.32683609 18.77298935 27.36393841 31.29526841
 39.8628893  41.62870137]
beta-E2gx nocc = 0
   mo_energy = [ 0.31053316  0.94812694  1.71521729  2.20056818  4.44687057  4.69618156
  7.16259393  9.87615254  9.89284144 16.79582833 21.25485637 21.29948475
 39.05495001 46.97125167 47.10127667]
beta-E2gy nocc = 0
   mo_energy = [ 0.31053316  0.94812694  1.71521729  2.20056818  4.44687057  4.69618156
  7.16259393  9.87615254  9.89284144 16.79582833 21.25485637 21.29948475
 39.05495001 46.97125167 47.10127667]
beta-E3gx nocc = 0
   mo_energy = [ 1.70985985  4.43683501  7.15671557  9.87310855 16.78656414 21.23690135
 39.04339196 46.951053  ]
beta-E3gy nocc = 0
   mo_energy = [ 1.70985985  4.43683501  7.15671557  9.87310855 16.78656414 21.23690135
 39.04339196 46.951053  ]
beta-E2uy nocc = 0
   mo_energy = [ 0.69147219  1.94413337  3.4188398   4.36620585  8.22684007  9.08473978
 10.12382538 18.31874752 18.75621888 27.35905075 39.84515737 41.61950538]
beta-E2ux nocc = 0
   mo_energy = [ 0.69147219  1.94413337  3.4188398   4.36620585  8.22684007  9.08473978
 10.12382538 18.31874752 18.75621888 27.35905075 39.84515737 41.61950538]
beta-E3uy nocc = 0
   mo_energy = [ 0.68664183  1.93532264  3.41349529  4.35299623  8.21742392  9.06463143
 10.11880784 18.30529153 18.72835312 27.35091564 39.81571564 41.60420409]
beta-E3ux nocc = 0
   mo_energy = [ 0.68664183  1.93532264  3.41349529  4.35299623  8.21742392  9.06463143
 10.11880784 18.30529153 18.72835312 27.35091564 39.81571564 41.60420409]
beta-E4gx nocc = 0
   mo_energy = [ 1.70239527  4.42268997  7.14851075  9.8517562  16.77363052 21.20924402
 39.02724297 46.92243778]
beta-E4gy nocc = 0
   mo_energy = [ 1.70239527  4.42268997  7.14851075  9.8517562  16.77363052 21.20924402
 39.02724297 46.92243778]
beta-E5gx nocc = 0
   mo_energy = [ 7.13800391 16.75706334 39.00653515]
beta-E5gy nocc = 0
   mo_energy = [ 7.13800391 16.75706334 39.00653515]
beta-E4uy nocc = 0
   mo_energy = [ 3.40604183  8.20427566 10.1118048  18.28650552 27.3395495  41.5828354 ]
beta-E4ux nocc = 0
   mo_energy = [ 3.40604183  8.20427566 10.1118048  18.28650552 27.3395495  41.5828354 ]
beta-E5uy nocc = 0
   mo_energy = [ 3.39650785  8.18742992 10.10283733 18.26244172 27.32497521 41.55545212]
beta-E5ux nocc = 0
   mo_energy = [ 3.39650785  8.18742992 10.10283733 18.26244172 27.32497521 41.55545212]
beta-E6gx nocc = 0
   mo_energy = [ 7.12522579 16.73690816 38.98130952]
beta-E6gy nocc = 0
   mo_energy = [ 7.12522579 16.73690816 38.98130952]
beta-E6uy nocc = 0
   mo_energy = [10.09193189 27.30722191]
beta-E6ux nocc = 0
   mo_energy = [10.09193189 27.30722191]
beta-E7uy nocc = 0
   mo_energy = [10.07911991 27.28632493]
beta-E7ux nocc = 0
   mo_energy = [10.07911991 27.28632493]
multiplicity <S^2> = 2.0092742  2S+1 = 3.0061765
E1 = -103.25193267082966  Ecoul = 28.432956576892508
cycle= 6 E= -74.8189760939372  delta_E= -6.67e-06  |g|= 0.000384  |ddm|= 0.00225
    CPU time for cycle= 6      7.20 sec, wall time      7.32 sec
diis-norm(errvec)=0.00147529
diis-c [-6.67070782e-07  1.42430398e-03  1.61628200e-03 -6.09727353e-02
  2.42763167e-01 -6.66834691e-01  1.48200367e+00]
alpha HOMO (A1u) = -0.611585633060545  LUMO (E1uy) = 0.0643177491573464
alpha irrep_nelec = [2, 0, 0, 1, 1, 1, 0, 0, 0, 0, 0, 0, 0, 0, 0, 0, 0, 0, 0, 0, 0, 0, 0, 0, 0, 0, 0, 0]
beta  irrep_nelec = [2, 0, 0, 1, 0, 0, 0, 0, 0, 0, 0, 0, 0, 0, 0, 0, 0, 0, 0, 0, 0, 0, 0, 0, 0, 0, 0, 0]
alpha-A1g nocc = 2  HOMO = -1.41830548720757  LUMO = 0.09329994427091
   mo_energy = [-2.07075036e+01 -1.41830549e+00  9.32999443e-02  3.13451558e-01
  5.06085903e-01  9.29114398e-01  1.71823491e+00  1.72955559e+00
  2.14344129e+00  4.44449134e+00  4.63402960e+00  5.00943135e+00
  7.16248082e+00  9.84227992e+00  9.87814646e+00  1.37105744e+01
  1.67894569e+01  2.12361310e+01  2.12971045e+01  3.82884844e+01
  3.90432851e+01  4.69589959e+01  4.71156315e+01  1.71689511e+02]
alpha-E1gx nocc = 0
   mo_energy = [ 0.31129999  0.92181546  1.71685032  2.12975694  4.44137074  4.61619501
  7.16106142  9.8229586   9.87220727 16.78713637 21.22974552 21.27702281
 39.04040807 46.9533944  47.09897095]
alpha-E1gy nocc = 0
   mo_energy = [ 0.31129999  0.92181546  1.71685032  2.12975694  4.44137074  4.61619501
  7.16106142  9.8229586   9.87220727 16.78713637 21.22974552 21.27702281
 39.04040807 46.9533944  47.09897095]
alpha-A1u nocc = 1  HOMO = -0.611585633060545  LUMO = 0.0671575546990077
   mo_energy = [-0.61158563  0.06715755  0.28508139  0.69480028  0.84829843  1.94224615
  2.13769875  3.42074988  4.35046147  4.99932984  8.22310593  9.06087524
 10.12315631 11.48228109 18.30697139 18.73752306 27.35127786 31.29728003
 39.83677542 41.60595859]
alpha-E1uy nocc = 1  HOMO = -0.711089217583229  LUMO = 0.0643177491573464
   mo_energy = [-0.71108922  0.06431775  0.27308113  0.69352616  0.81964336  1.93874248
  2.08938603  3.41943905  4.34413828  4.93308719  8.22058532  9.05208794
 10.12198703 11.40647997 18.30330874 18.72750779 27.34932449 31.23906358
 39.827641   41.60193743]
alpha-E1ux nocc = 1  HOMO = -0.711089217583232  LUMO = 0.0643177491573471
   mo_energy = [-0.71108922  0.06431775  0.27308113  0.69352616  0.81964336  1.93874248
  2.08938603  3.41943905  4.34413828  4.93308719  8.22058532  9.05208794
 10.12198703 11.40647997 18.30330874 18.72750779 27.34932449 31.23906358
 39.827641   41.60193743]
alpha-E2gx nocc = 0
   mo_energy = [ 0.30510098  0.90144957  1.71271739  2.09160807  4.43205901  4.56503903
  7.15680997  9.76524139  9.85644731 16.78018354 21.20488452 21.22417795
 39.03178353 46.9366168  47.04993539]
alpha-E2gy nocc = 0
   mo_energy = [ 0.30510098  0.90144957  1.71271739  2.09160807  4.43205901  4.56503903
  7.15680997  9.76524139  9.85644731 16.78018354 21.20488452 21.22417795
 39.03178353 46.9366168  47.04993539]
alpha-E3gx nocc = 0
   mo_energy = [ 1.7059154   4.41670034  7.14974661  9.83171884 16.76862448 21.18632545
 39.01743125 46.90874653]
alpha-E3gy nocc = 0
   mo_energy = [ 1.7059154   4.41670034  7.14974661  9.83171884 16.76862448 21.18632545
 39.01743125 46.90874653]
alpha-E2uy nocc = 0
   mo_energy = [ 0.6897674   1.92868299  3.41551692  4.32525624  8.2130378   9.02578266
 10.11848412 18.292336   18.69755531 27.34346907 39.80030172 41.58988678]
alpha-E2ux nocc = 0
   mo_energy = [ 0.6897674   1.92868299  3.41551692  4.32525624  8.2130378   9.02578266
 10.11848412 18.292336   18.69755531 27.34346907 39.80030172 41.58988678]
alpha-E3uy nocc = 0
   mo_energy = [ 0.6834437   1.91107945  3.40901406  4.29336155  8.2005058   8.98203204
 10.1126622  18.27409819 18.64793083 27.33372557 39.75494366 41.56984486]
alpha-E3ux nocc = 0
   mo_energy = [ 0.6834437   1.91107945  3.40901406  4.29336155  8.2005058   8.98203204
 10.1126622  18.27409819 18.64793083 27.33372557 39.75494366 41.56984486]
alpha-E4gx nocc = 0
   mo_energy = [ 1.6965557   4.39544599  7.13990438  9.79796397 16.75250219 21.14494568
 38.99738395 46.86926668]
alpha-E4gy nocc = 0
   mo_energy = [ 1.6965557   4.39544599  7.13990438  9.79796397 16.75250219 21.14494568
 38.99738395 46.86926668]
alpha-E5gx nocc = 0
   mo_energy = [ 7.12732855 16.73187598 38.97168712]
alpha-E5gy nocc = 0
   mo_energy = [ 7.12732855 16.73187598 38.97168712]
alpha-E4uy nocc = 0
   mo_energy = [ 3.39997989  8.18305836 10.1045453  18.24866838 27.32011715 41.54187452]
alpha-E4ux nocc = 0
   mo_energy = [ 3.39997989  8.18305836 10.1045453  18.24866838 27.32011715 41.54187452]
alpha-E5uy nocc = 0
   mo_energy = [ 3.38848062  8.16078887 10.09416624 18.21614377 27.30267601 41.50606209]
alpha-E5ux nocc = 0
   mo_energy = [ 3.38848062  8.16078887 10.09416624 18.21614377 27.30267601 41.50606209]
alpha-E6gx nocc = 0
   mo_energy = [ 7.11207569 16.70682056 38.94039863]
alpha-E6gy nocc = 0
   mo_energy = [ 7.11207569 16.70682056 38.94039863]
alpha-E6uy nocc = 0
   mo_energy = [10.08156598 27.28144305]
alpha-E6ux nocc = 0
   mo_energy = [10.08156598 27.28144305]
alpha-E7uy nocc = 0
   mo_energy = [10.06679274 27.25646763]
alpha-E7ux nocc = 0
   mo_energy = [10.06679274 27.25646763]
beta-A1g nocc = 2  HOMO = -1.07557014163618  LUMO = 0.0993806152056754
   mo_energy = [-2.06292269e+01 -1.07557014e+00  9.93806152e-02  3.14238514e-01
  5.33815555e-01  9.43695259e-01  1.71948551e+00  1.78636594e+00
  2.18702512e+00  4.45478752e+00  4.69191244e+00  5.08178776e+00
  7.16726785e+00  9.88821401e+00  9.91147591e+00  1.37739581e+01
  1.68032036e+01  2.12696022e+01  2.13381795e+01  3.83264261e+01
  3.90641368e+01  4.69872937e+01  4.71417243e+01  1.71701857e+02]
beta-E1gx nocc = 0
   mo_energy = [ 0.31321068  0.94435711  1.71841287  2.18960234  4.45280755  4.69317771
  7.16608938  9.8852841   9.90662602 16.80134594 21.26588529 21.32836653
 39.0618199  46.98326136 47.13146888]
beta-E1gy nocc = 0
   mo_energy = [ 0.31321068  0.94435711  1.71841287  2.18960234  4.45280755  4.69317771
  7.16608938  9.8852841   9.90662602 16.80134594 21.26588529 21.32836653
 39.0618199  46.98326136 47.13146888]
beta-A1u nocc = 1  HOMO = -0.52170111296512  LUMO = 0.067897573127019
   mo_energy = [-0.52170111  0.06789757  0.29118179  0.69529564  0.86464539  1.95089737
  2.16267854  3.42309679  4.37648005  5.02967147  8.23434554  9.10070309
 10.12780751 11.51385895 18.32948029 18.77853691 27.36550777 31.31886551
 39.86873899 41.63169215]
beta-E1uy nocc = 0
   mo_energy = [ 0.04616234  0.10959881  0.3375973   0.69433792  0.91322547  1.94922105
  2.19661788  3.42202471  4.37392227  5.03670437  8.23245819  9.09670813
 10.12680151 11.49582537 18.32678135 18.77293367 27.36387754 31.29518047
 39.86281173 41.62862279]
beta-E1ux nocc = 0
   mo_energy = [ 0.04616234  0.10959881  0.3375973   0.69433792  0.91322547  1.94922105
  2.19661788  3.42202471  4.37392227  5.03670437  8.23245819  9.09670813
 10.12680151 11.49582537 18.32678135 18.77293367 27.36387754 31.29518047
 39.86281173 41.62862279]
beta-E2gx nocc = 0
   mo_energy = [ 0.31053047  0.94811553  1.71519664  2.20054112  4.44683743  4.6961326
  7.16255756  9.87609214  9.89278299 16.79577805 21.25479094 21.29938224
 39.05487388 46.97116031 47.10116412]
beta-E2gy nocc = 0
   mo_energy = [ 0.31053047  0.94811553  1.71519664  2.20054112  4.44683743  4.6961326
  7.16255756  9.87609214  9.89278299 16.79577805 21.25479094 21.29938224
 39.05487388 46.97116031 47.10116412]
beta-E3gx nocc = 0
[...]
   mo_energy = [ 7.12522787 16.73688112 38.98121984]
beta-E6uy nocc = 0
   mo_energy = [10.09192459 27.30717834]
beta-E6ux nocc = 0
   mo_energy = [10.09192459 27.30717834]
beta-E7uy nocc = 0
   mo_energy = [10.07912041 27.28627703]
beta-E7ux nocc = 0
   mo_energy = [10.07912041 27.28627703]
multiplicity <S^2> = 2.0093767  2S+1 = 3.0062446
E1 = -103.2519700617079  Ecoul = 28.432993756416707
cycle= 8 E= -74.8189763052912  delta_E= -4.92e-09  |g|= 8.18e-06  |ddm|= 5.87e-05
    CPU time for cycle= 8      7.15 sec, wall time      7.24 sec
diis-norm(errvec)=2.49616e-05
diis-c [-9.79813560e-11 -4.60493114e-06  1.27096042e-04 -8.91826632e-04
  4.38261726e-03 -1.95192688e-02  9.28032212e-02 -3.41869488e-01
  1.26497225e+00]
alpha HOMO (A1u) = -0.61162071090217  LUMO (E1uy) = 0.0643187448914559
alpha irrep_nelec = [2, 0, 0, 1, 1, 1, 0, 0, 0, 0, 0, 0, 0, 0, 0, 0, 0, 0, 0, 0, 0, 0, 0, 0, 0, 0, 0, 0]
beta  irrep_nelec = [2, 0, 0, 1, 0, 0, 0, 0, 0, 0, 0, 0, 0, 0, 0, 0, 0, 0, 0, 0, 0, 0, 0, 0, 0, 0, 0, 0]
alpha-A1g nocc = 2  HOMO = -1.41828853291428  LUMO = 0.0933034695338593
   mo_energy = [-2.07074952e+01 -1.41828853e+00  9.33034695e-02  3.13454868e-01
  5.06092789e-01  9.29124475e-01  1.71823845e+00  1.72956600e+00
  2.14345037e+00  4.44450207e+00  4.63403995e+00  5.00944722e+00
  7.16249082e+00  9.84229596e+00  9.87816490e+00  1.37105930e+01
  1.67894767e+01  2.12361553e+01  2.12971284e+01  3.82884997e+01
  3.90433140e+01  4.69590251e+01  4.71156556e+01  1.71689506e+02]
alpha-E1gx nocc = 0
   mo_energy = [ 0.31130306  0.92182319  1.71685395  2.12976487  4.44138125  4.61620626
  7.1610714   9.82297457  9.87222517 16.78715587 21.22976874 21.27704492
 39.04043638 46.95342246 47.09899214]
alpha-E1gy nocc = 0
   mo_energy = [ 0.31130306  0.92182319  1.71685395  2.12976487  4.44138125  4.61620626
  7.1610714   9.82297457  9.87222517 16.78715587 21.22976874 21.27704492
 39.04043638 46.95342246 47.09899214]
alpha-A1u nocc = 1  HOMO = -0.61162071090217  LUMO = 0.0671567805286059
   mo_energy = [-0.61162071  0.06715678  0.2850783   0.6948022   0.84829251  1.94225341
  2.13769452  3.42075534  4.35047405  4.99933392  8.22311978  9.0608934
 10.12316764 11.48229561 18.30699432 18.73754698 27.3513018  31.29729606
 39.83680252 41.60598847]
alpha-E1uy nocc = 1  HOMO = -0.71106328811131  LUMO = 0.0643187448914559
   mo_energy = [-0.71106329  0.06431874  0.27308622  0.69352822  0.81965378  1.93874955
  2.0894005   3.41944457  4.34415034  4.93310441  8.22059897  9.05210538
 10.12199833 11.4064979  18.30333114 18.72753049 27.34934812 31.23907627
 39.82766648 41.60196647]
alpha-E1ux nocc = 1  HOMO = -0.711063288111293  LUMO = 0.0643187448914617
   mo_energy = [-0.71106329  0.06431874  0.27308622  0.69352822  0.81965378  1.93874955
  2.0894005   3.41944457  4.34415034  4.93310441  8.22059897  9.05210538
 10.12199833 11.4064979  18.30333114 18.72753049 27.34934812 31.23907627
 39.82766648 41.60196647]
alpha-E2gx nocc = 0
   mo_energy = [ 0.30510311  0.90145163  1.71272136  2.09161615  4.432069    4.56505601
  7.15681991  9.76526006  9.85646371 16.78020221 21.20490244 21.2241986
 39.03181012 46.93664143 47.04994873]
alpha-E2gy nocc = 0
   mo_energy = [ 0.30510311  0.90145163  1.71272136  2.09161615  4.432069    4.56505601
  7.15681991  9.76526006  9.85646371 16.78020221 21.20490244 21.2241986
 39.03181012 46.93664143 47.04994873]
alpha-E3gx nocc = 0
   mo_energy = [ 1.70592012  4.4167099   7.14975659  9.8317333  16.76864189 21.18634324
 39.01745502 46.90876561]
alpha-E3gy nocc = 0
   mo_energy = [ 1.70592012  4.4167099   7.14975659  9.8317333  16.76864189 21.18634324
 39.01745502 46.90876561]
alpha-E2uy nocc = 0
   mo_energy = [ 0.6897699   1.92868944  3.41552267  4.32526705  8.21305094  9.02579842
 10.11849535 18.29235684 18.69757468 27.34349178 39.80032247 41.58991333]
alpha-E2ux nocc = 0
   mo_energy = [ 0.6897699   1.92868944  3.41552267  4.32526705  8.21305094  9.02579842
 10.11849535 18.29235684 18.69757468 27.34349178 39.80032247 41.58991333]
alpha-E3uy nocc = 0
   mo_energy = [ 0.68344706  1.91108538  3.40902032  4.29337171  8.20051831  8.98204661
 10.11267337 18.27411664 18.64794572 27.33374679 39.75495695 41.56986734]
alpha-E3ux nocc = 0
   mo_energy = [ 0.68344706  1.91108538  3.40902032  4.29337171  8.20051831  8.98204661
 10.11267337 18.27411664 18.64794572 27.33374679 39.75495695 41.56986734]
alpha-E4gx nocc = 0
   mo_energy = [ 1.6965618   4.39545589  7.13991461  9.79797679 16.75251806 21.1449585
 38.9974039  46.86927798]
alpha-E4gy nocc = 0
   mo_energy = [ 1.6965618   4.39545589  7.13991461  9.79797679 16.75251806 21.1449585
 38.9974039  46.86927798]
alpha-E5gx nocc = 0
   mo_energy = [ 7.12733945 16.73189027 38.97170235]
alpha-E5gy nocc = 0
   mo_energy = [ 7.12733945 16.73189027 38.97170235]
alpha-E4uy nocc = 0
   mo_energy = [ 3.39998711  8.18307043 10.10455651 18.24868388 27.32013642 41.54189148]
alpha-E4ux nocc = 0
   mo_energy = [ 3.39998711  8.18307043 10.10455651 18.24868388 27.32013642 41.54189148]
alpha-E5uy nocc = 0
   mo_energy = [ 3.38848949  8.16080113 10.0941777  18.21615614 27.30269295 41.50607223]
alpha-E5ux nocc = 0
   mo_energy = [ 3.38848949  8.16080113 10.0941777  18.21615614 27.30269295 41.50607223]
alpha-E6gx nocc = 0
   mo_energy = [ 7.1120879  16.7068335  38.94040839]
alpha-E6gy nocc = 0
   mo_energy = [ 7.1120879  16.7068335  38.94040839]
alpha-E6uy nocc = 0
   mo_energy = [10.08157806 27.28145744]
alpha-E6ux nocc = 0
   mo_energy = [10.08157806 27.28145744]
alpha-E7uy nocc = 0
   mo_energy = [10.066806  27.2564794]
alpha-E7ux nocc = 0
   mo_energy = [10.066806  27.2564794]
beta-A1g nocc = 2  HOMO = -1.07554697296517  LUMO = 0.0993821648449656
   mo_energy = [-2.06292118e+01 -1.07554697e+00  9.93821648e-02  3.14238023e-01
  5.33820934e-01  9.43696385e-01  1.71948634e+00  1.78637713e+00
  2.18703266e+00  4.45479583e+00  4.69193018e+00  5.08180414e+00
  7.16727612e+00  9.88823893e+00  9.91149569e+00  1.37739782e+01
  1.68032232e+01  2.12696309e+01  2.13382110e+01  3.83264435e+01
  3.90641676e+01  4.69873274e+01  4.71417541e+01  1.71701855e+02]
beta-E1gx nocc = 0
   mo_energy = [ 0.31321108  0.94436139  1.7184141   2.18961312  4.45281621  4.69319439
  7.16609779  9.88530689  9.90664381 16.80136532 21.26591257 21.32839279
 39.06185008 46.98329337 47.13149339]
beta-E1gy nocc = 0
   mo_energy = [ 0.31321108  0.94436139  1.7184141   2.18961312  4.45281621  4.69319439
  7.16609779  9.88530689  9.90664381 16.80136532 21.26591257 21.32839279
 39.06185008 46.98329337 47.13149339]
beta-A1u nocc = 1  HOMO = -0.521687305176829  LUMO = 0.0678972992253322
   mo_energy = [-0.52168731  0.0678973   0.29118271  0.69529525  0.8646497   1.95090071
  2.16268901  3.42309997  4.37649134  5.02969102  8.23435811  9.10072408
 10.12781757 11.51388748 18.32950427 18.77856638 27.36553212 31.31889202
 39.86877172 41.63172523]
beta-E1uy nocc = 0
   mo_energy = [ 0.0461665   0.10960757  0.33760314  0.69433797  0.91323263  1.94922524
  2.19662828  3.42202816  4.37393403  5.03671742  8.23247082  9.09672822
 10.12681163 11.49583827 18.3268048  18.77296092 27.36390159 31.29518982
 39.86284174 41.62865479]
beta-E1ux nocc = 0
   mo_energy = [ 0.0461665   0.10960757  0.33760314  0.69433797  0.91323263  1.94922524
  2.19662828  3.42202816  4.37393403  5.03671742  8.23247082  9.09672822
 10.12681163 11.49583827 18.3268048  18.77296092 27.36390159 31.29518982
 39.86284174 41.62865479]
beta-E2gx nocc = 0
   mo_energy = [ 0.31053295  0.94812389  1.71519905  2.20055408  4.44684712  4.69614557
  7.16256639  9.87610737  9.89279746 16.79579685 21.25481418 21.29939394
 39.05490205 46.97118734 47.10117332]
beta-E2gy nocc = 0
   mo_energy = [ 0.31053295  0.94812389  1.71519905  2.20055408  4.44684712  4.69614557
  7.16256639  9.87610737  9.89279746 16.79579685 21.25481418 21.29939394
 39.05490205 46.97118734 47.10117332]
beta-E3gx nocc = 0
   mo_energy = [ 1.70985031  4.43681967  7.15669265  9.87308063 16.78653331 21.23684432
 39.04333729 46.95096533]
beta-E3gy nocc = 0
   mo_energy = [ 1.70985031  4.43681967  7.15669265  9.87308063 16.78653331 21.23684432
 39.04333729 46.95096533]
beta-E2uy nocc = 0
   mo_energy = [ 0.69146212  1.94411364  3.41881693  4.36618688  8.22681383  9.08471319
 10.12379692 18.31871384 18.75616996 27.3590133  39.84508527 41.61945105]
beta-E2ux nocc = 0
   mo_energy = [ 0.69146212  1.94411364  3.41881693  4.36618688  8.22681383  9.08471319
 10.12379692 18.31871384 18.75616996 27.3590133  39.84508527 41.61945105]
beta-E3uy nocc = 0
   mo_energy = [ 0.68664314  1.93532256  3.41347874  4.35298314  8.21740188  9.06458788
 10.1187827  18.30525377 18.72826923 27.35087707 39.81560164 41.60413665]
beta-E3ux nocc = 0
   mo_energy = [ 0.68664314  1.93532256  3.41347874  4.35298314  8.21740188  9.06458788
 10.1187827  18.30525377 18.72826923 27.35087707 39.81560164 41.60413665]
beta-E4gx nocc = 0
   mo_energy = [ 1.70239827  4.42268752  7.14849427  9.85172557 16.77360043 21.20916442
 39.02717866 46.9223166 ]
beta-E4gy nocc = 0
   mo_energy = [ 1.70239827  4.42268752  7.14849427  9.85172557 16.77360043 21.20916442
 39.02717866 46.9223166 ]
beta-E5gx nocc = 0
   mo_energy = [ 7.13799565 16.75703392 39.00645803]
beta-E5gy nocc = 0
   mo_energy = [ 7.13799565 16.75703392 39.00645803]
beta-E4uy nocc = 0
   mo_energy = [ 3.40603425  8.20425962 10.11178423 18.28646179 27.33950922 41.58274923]
beta-E4ux nocc = 0
   mo_energy = [ 3.40603425  8.20425962 10.11178423 18.28646179 27.33950922 41.58274923]
beta-E5uy nocc = 0
   mo_energy = [ 3.39651198  8.18742166 10.10282252 18.26238986 27.32493246 41.55534126]
beta-E5ux nocc = 0
   mo_energy = [ 3.39651198  8.18742166 10.10282252 18.26238986 27.32493246 41.55534126]
beta-E6gx nocc = 0
   mo_energy = [ 7.12522752 16.73687916 38.98121616]
beta-E6gy nocc = 0
   mo_energy = [ 7.12522752 16.73687916 38.98121616]
beta-E6uy nocc = 0
   mo_energy = [10.09192395 27.30717579]
beta-E6ux nocc = 0
   mo_energy = [10.09192395 27.30717579]
beta-E7uy nocc = 0
   mo_energy = [10.07911988 27.28627434]
beta-E7ux nocc = 0
   mo_energy = [10.07911988 27.28627434]
multiplicity <S^2> = 2.0093764  2S+1 = 3.0062445
E1 = -103.25197747859687  Ecoul = 28.433001173247888
cycle= 9 E= -74.818976305349  delta_E= -5.78e-11  |g|= 1.02e-06  |ddm|= 7.89e-06
    CPU time for cycle= 9      6.86 sec, wall time      6.96 sec
alpha HOMO (A1u) = -0.611620570000339  LUMO (E1ux) = 0.0643187444017928
alpha irrep_nelec = [2, 0, 0, 1, 1, 1, 0, 0, 0, 0, 0, 0, 0, 0, 0, 0, 0, 0, 0, 0, 0, 0, 0, 0, 0, 0, 0, 0]
beta  irrep_nelec = [2, 0, 0, 1, 0, 0, 0, 0, 0, 0, 0, 0, 0, 0, 0, 0, 0, 0, 0, 0, 0, 0, 0, 0, 0, 0, 0, 0]
alpha-A1g nocc = 2  HOMO = -1.41828844016034  LUMO = 0.093303441890007
   mo_energy = [-2.07074948e+01 -1.41828844e+00  9.33034419e-02  3.13454844e-01
  5.06092784e-01  9.29124546e-01  1.71823844e+00  1.72956606e+00
  2.14345050e+00  4.44450215e+00  4.63404009e+00  5.00944736e+00
  7.16249088e+00  9.84229621e+00  9.87816510e+00  1.37105932e+01
  1.67894769e+01  2.12361556e+01  2.12971288e+01  3.82885001e+01
  3.90433144e+01  4.69590255e+01  4.71156561e+01  1.71689506e+02]
alpha-E1gx nocc = 0
   mo_energy = [ 0.31130304  0.92182325  1.71685394  2.129765    4.44138134  4.6162064
  7.16107146  9.82297481  9.87222536 16.78715607 21.22976905 21.27704529
 39.04043675 46.95342291 47.09899258]
alpha-E1gy nocc = 0
   mo_energy = [ 0.31130304  0.92182325  1.71685394  2.129765    4.44138134  4.6162064
  7.16107146  9.82297481  9.87222536 16.78715607 21.22976905 21.27704529
 39.04043675 46.95342291 47.09899258]
alpha-A1u nocc = 1  HOMO = -0.611620570000339  LUMO = 0.0671567719113325
   mo_energy = [-0.61162057  0.06715677  0.28507828  0.69480218  0.8482925   1.94225346
  2.1376946   3.42075535  4.35047418  4.99933411  8.2231199   9.06089361
 10.12316771 11.48229593 18.30699458 18.73754731 27.35130207 31.29729646
 39.83680297 41.60598889]
alpha-E1uy nocc = 1  HOMO = -0.711062954015975  LUMO = 0.0643187444018007
   mo_energy = [-0.71106295  0.06431874  0.27308622  0.6935282   0.81965382  1.93874961
  2.08940062  3.41944458  4.34415047  4.9331046   8.22059909  9.05210559
 10.12199841 11.40649815 18.3033314  18.7275308  27.34934839 31.23907659
 39.82766692 41.60196688]
alpha-E1ux nocc = 1  HOMO = -0.711062954015999  LUMO = 0.0643187444017928
   mo_energy = [-0.71106295  0.06431874  0.27308622  0.6935282   0.81965382  1.93874961
  2.08940062  3.41944458  4.34415047  4.9331046   8.22059909  9.05210559
 10.12199841 11.40649815 18.3033314  18.7275308  27.34934839 31.23907659
 39.82766692 41.60196688]
alpha-E2gx nocc = 0
   mo_energy = [ 0.30510311  0.9014517   1.71272136  2.09161629  4.43206909  4.56505614
  7.15681998  9.76526025  9.85646389 16.78020241 21.20490272 21.22419891
 39.03181047 46.93664184 47.0499491 ]
alpha-E2gy nocc = 0
   mo_energy = [ 0.30510311  0.9014517   1.71272136  2.09161629  4.43206909  4.56505614
  7.15681998  9.76526025  9.85646389 16.78020241 21.20490272 21.22419891
 39.03181047 46.93664184 47.0499491 ]
alpha-E3gx nocc = 0
   mo_energy = [ 1.70592013  4.41670999  7.14975666  9.83173347 16.76864208 21.1863435
 39.01745535 46.90876598]
alpha-E3gy nocc = 0
   mo_energy = [ 1.70592013  4.41670999  7.14975666  9.83173347 16.76864208 21.1863435
 39.01745535 46.90876598]
alpha-E2uy nocc = 0
   mo_energy = [ 0.68976989  1.92868949  3.41552269  4.32526718  8.21305106  9.02579861
 10.11849542 18.29235709 18.69757496 27.34349204 39.80032286 41.58991372]
alpha-E2ux nocc = 0
   mo_energy = [ 0.68976989  1.92868949  3.41552269  4.32526718  8.21305106  9.02579861
 10.11849542 18.29235709 18.69757496 27.34349204 39.80032286 41.58991372]
alpha-E3uy nocc = 0
   mo_energy = [ 0.68344707  1.91108545  3.40902035  4.29337184  8.20051843  8.98204677
 10.11267345 18.27411687 18.64794593 27.33374704 39.75495727 41.5698677 ]
alpha-E3ux nocc = 0
   mo_energy = [ 0.68344707  1.91108545  3.40902035  4.29337184  8.20051843  8.98204677
 10.11267345 18.27411687 18.64794593 27.33374704 39.75495727 41.5698677 ]
alpha-E4gx nocc = 0
   mo_energy = [ 1.69656183  4.39545598  7.13991469  9.79797693 16.75251824 21.1449587
 38.9974042  46.86927829]
alpha-E4gy nocc = 0
   mo_energy = [ 1.69656183  4.39545598  7.13991469  9.79797693 16.75251824 21.1449587
 38.9974042  46.86927829]
alpha-E5gx nocc = 0
   mo_energy = [ 7.12733952 16.73189043 38.97170261]
alpha-E5gy nocc = 0
   mo_energy = [ 7.12733952 16.73189043 38.97170261]
alpha-E4uy nocc = 0
   mo_energy = [ 3.39998715  8.18307055 10.10455659 18.24868408 27.32013666 41.54189179]
alpha-E4ux nocc = 0
   mo_energy = [ 3.39998715  8.18307055 10.10455659 18.24868408 27.32013666 41.54189179]
alpha-E5uy nocc = 0
   mo_energy = [ 3.38848954  8.16080124 10.09417779 18.2161563  27.30269317 41.50607249]
alpha-E5ux nocc = 0
   mo_energy = [ 3.38848954  8.16080124 10.09417779 18.2161563  27.30269317 41.50607249]
alpha-E6gx nocc = 0
   mo_energy = [ 7.11208798 16.70683363 38.9404086 ]
alpha-E6gy nocc = 0
   mo_energy = [ 7.11208798 16.70683363 38.9404086 ]
alpha-E6uy nocc = 0
   mo_energy = [10.08157815 27.28145763]
alpha-E6ux nocc = 0
   mo_energy = [10.08157815 27.28145763]
alpha-E7uy nocc = 0
   mo_energy = [10.06680608 27.25647956]
alpha-E7ux nocc = 0
   mo_energy = [10.06680608 27.25647956]
beta-A1g nocc = 2  HOMO = -1.07554665105071  LUMO = 0.099382212699609
   mo_energy = [-2.06292113e+01 -1.07554665e+00  9.93822127e-02  3.14238048e-01
  5.33821044e-01  9.43696400e-01  1.71948634e+00  1.78637731e+00
  2.18703270e+00  4.45479587e+00  4.69193035e+00  5.08180441e+00
  7.16727616e+00  9.88823918e+00  9.91149592e+00  1.37739786e+01
  1.68032234e+01  2.12696312e+01  2.13382114e+01  3.83264440e+01
  3.90641680e+01  4.69873279e+01  4.71417546e+01  1.71701855e+02]
beta-E1gx nocc = 0
   mo_energy = [ 0.31321111  0.9443614   1.7184141   2.18961314  4.45281625  4.69319457
  7.16609783  9.88530714  9.90664403 16.80136551 21.26591292 21.32839319
 39.06185047 46.98329384 47.13149385]
beta-E1gy nocc = 0
   mo_energy = [ 0.31321111  0.9443614   1.7184141   2.18961314  4.45281625  4.69319457
  7.16609783  9.88530714  9.90664403 16.80136551 21.26591292 21.32839319
 39.06185047 46.98329384 47.13149385]
beta-A1u nocc = 1  HOMO = -0.521687420389098  LUMO = 0.0678972974573128
   mo_energy = [-0.52168742  0.0678973   0.29118273  0.69529526  0.86464976  1.95090072
  2.16268911  3.42309997  4.37649142  5.02969122  8.23435819  9.1007243
 10.12781763 11.51388784 18.32950453 18.77856676 27.36553238 31.31889248
 39.8687722  41.63172567]
beta-E1uy nocc = 0
   mo_energy = [ 0.04616653  0.10960764  0.33760322  0.69433798  0.91323275  1.94922525
  2.19662841  3.42202817  4.37393411  5.0367176   8.2324709   9.09672844
 10.12681169 11.49583857 18.32680506 18.77296128 27.36390186 31.29519021
 39.8628422  41.62865523]
beta-E1ux nocc = 0
   mo_energy = [ 0.04616653  0.10960764  0.33760322  0.69433798  0.91323275  1.94922525
  2.19662841  3.42202817  4.37393411  5.0367176   8.2324709   9.09672844
 10.12681169 11.49583857 18.32680506 18.77296128 27.36390186 31.29519021
 39.8628422  41.62865523]
beta-E2gx nocc = 0
   mo_energy = [ 0.31053297  0.9481239   1.71519907  2.20055414  4.44684716  4.69614574
  7.16256643  9.87610761  9.89279765 16.79579703 21.2548145  21.29939426
 39.05490243 46.97118778 47.1011737 ]
beta-E2gy nocc = 0
   mo_energy = [ 0.31053297  0.9481239   1.71519907  2.20055414  4.44684716  4.69614574
  7.16256643  9.87610761  9.89279765 16.79579703 21.2548145  21.29939426
 39.05490243 46.97118778 47.1011737 ]
beta-E3gx nocc = 0
   mo_energy = [ 1.70985033  4.43681971  7.15669269  9.87308078 16.78653348 21.23684461
 39.04333765 46.95096573]
beta-E3gy nocc = 0
   mo_energy = [ 1.70985033  4.43681971  7.15669269  9.87308078 16.78653348 21.23684461
 39.04333765 46.95096573]
beta-E2uy nocc = 0
   mo_energy = [ 0.69146213  1.94411366  3.41881694  4.36618695  8.22681391  9.0847134
 10.12379698 18.31871409 18.75617029 27.35901356 39.84508569 41.61945147]
beta-E2ux nocc = 0
   mo_energy = [ 0.69146213  1.94411366  3.41881694  4.36618695  8.22681391  9.0847134
 10.12379698 18.31871409 18.75617029 27.35901356 39.84508569 41.61945147]
beta-E3uy nocc = 0
   mo_energy = [ 0.68664317  1.93532258  3.41347876  4.3529832   8.21740197  9.06458805
 10.11878276 18.305254   18.7282695  27.35087732 39.81560199 41.60413704]
beta-E3ux nocc = 0
   mo_energy = [ 0.68664317  1.93532258  3.41347876  4.3529832   8.21740197  9.06458805
 10.11878276 18.305254   18.7282695  27.35087732 39.81560199 41.60413704]
beta-E4gx nocc = 0
   mo_energy = [ 1.7023983   4.42268756  7.14849432  9.85172569 16.77360059 21.20916466
 39.02717899 46.92231694]
beta-E4gy nocc = 0
   mo_energy = [ 1.7023983   4.42268756  7.14849432  9.85172569 16.77360059 21.20916466
 39.02717899 46.92231694]
beta-E5gx nocc = 0
   mo_energy = [ 7.1379957  16.75703407 39.00645831]
beta-E5gy nocc = 0
   mo_energy = [ 7.1379957  16.75703407 39.00645831]
beta-E4uy nocc = 0
   mo_energy = [ 3.40603428  8.20425969 10.11178429 18.28646199 27.33950945 41.58274957]
beta-E4ux nocc = 0
   mo_energy = [ 3.40603428  8.20425969 10.11178429 18.28646199 27.33950945 41.58274957]
beta-E5uy nocc = 0
   mo_energy = [ 3.39651201  8.18742173 10.10282258 18.26239004 27.32493267 41.55534155]
beta-E5ux nocc = 0
   mo_energy = [ 3.39651201  8.18742173 10.10282258 18.26239004 27.32493267 41.55534155]
beta-E6gx nocc = 0
   mo_energy = [ 7.12522757 16.73687928 38.9812164 ]
beta-E6gy nocc = 0
   mo_energy = [ 7.12522757 16.73687928 38.9812164 ]
beta-E6uy nocc = 0
   mo_energy = [10.09192401 27.30717598]
beta-E6ux nocc = 0
   mo_energy = [10.09192401 27.30717598]
beta-E7uy nocc = 0
   mo_energy = [10.07911994 27.2862745 ]
beta-E7ux nocc = 0
   mo_energy = [10.07911994 27.2862745 ]
multiplicity <S^2> = 2.0093764  2S+1 = 3.0062445
E1 = -103.25197756131945  Ecoul = 28.43300125596982
Extra cycle  E= -74.8189763053496  delta_E= -6.39e-13  |g|= 3.13e-07  |ddm|= 9.55e-07
    CPU time for scf_cycle    202.34 sec, wall time    204.83 sec
    CPU time for SCF    202.35 sec, wall time    204.84 sec
converged SCF energy = -74.8189763053496  <S^2> = 2.0093764  2S+1 = 3.0062445
