 --invoking executable--
/project1/nike/cfour_v2.00beta_May2019xnmol_noLABBASIS/bin/xjoda


   *************************************************************************
         <<<     CCCCCC     CCCCCC   |||     CCCCCC     CCCCCC   >>>
       <<<      CCC        CCC       |||    CCC        CCC         >>>
      <<<      CCC        CCC        |||   CCC        CCC            >>>
    <<<        CCC        CCC        |||   CCC        CCC              >>>
      <<<      CCC        CCC        |||   CCC        CCC            >>>
       <<<      CCC        CCC       |||    CCC        CCC         >>>
         <<<     CCCCCC     CCCCCC   |||     CCCCCC     CCCCCC   >>>
   *************************************************************************

     ****************************************************************
     * CFOUR Coupled-Cluster techniques for Computational Chemistry *
     ****************************************************************
 

   Department of Chemistry                Institut fuer Physikalische Chemie
   University of Texas at Austin          Universitaet Mainz
   Austin, TX  78712, USA                 D-55099 Mainz, Germany
 
                       Version 2.00beta
 
                     req169                                            
                     Tue Mar 10 00:41:39 EDT 2020                      
                     integer*8 version is running
 
********************************************************************************
*                          Input from ZMAT file                                *
********************************************************************************
TITLE                                                                           
Li                                                                              
F 1 R                                                                           
                                                                                
R=2.9553426863                                                                  
                                                                                
*ACES2(CALC=CCSD(T)                                                             
UNITS=BOHR                                                                      
#GEOM=1.5639*10/5.29177210903_CRC2016                                           
#COORD=CARTESIAN                                                                
COORD=INTERNAL                                                                  
PRINT=4                                                                         
JODA_PRINT=4                                                                    
INPUT_MRCC=OFF                                                                  
#CC_PROG=MRCC                                                                   
#FROZEN_CORE=ON                                                                 
DROPMO=1>1                                                                      
CONTRACTION=GENERAL                                                             
#CONTRACTION=SEGMENTED                                                          
RELATIVISTIC=OFF                                                                
#EXCITE=EOMEE                                                                   
#ESTATE_CONV=5                                                                  
#ESTATE_SYM=2/2/2/2/2/2/2/2                                                     
XFORM_TOL=18                                                                    
SAVE_INTS=ON                                                                    
SCF_EXPORDER=6                                                                  
SCF_EXPSTART=5                                                                  
#SCF_DAMPING=1000                                                               
SCF_EXTRAPOLATION=ON                                                            
SCF_CONV=14                                                                     
SCF_MAXCYC=99999                                                                
CC_CONV=9                                                                       
CC_MAXCYC=999                                                                   
T3_EXTRAPOL=ON                                                                  
REFERENCE=ROHF                                                                  
#SYMMETRY=OFF                                                                   
#HFSTABILITY=FOLLOW                                                             
CHARGE=+1                                                                       
MULT=2                                                                          
ABCDTYPE=STANDARD                                                               
#OCCUPATION=3-2-2-0-1-0-0-0/3-1-1-0-1-0-0-0                                     
MEM=2                                                                           
MEM_UNIT=GB                                                                     
BASIS=SPECIAL)                                                                  
                                                                                
LI:def2-TZVPP                                                                   
F:def2-TZVPP                                                                    
                                                                                
********************************************************************************
  @GTFLGS-W, Keyword #GEOM not known and is ignored.
  @GTFLGS-W, Keyword #COORD not known and is ignored.
  @GTFLGS-W, Keyword #CC_PROG not known and is ignored.
  @GTFLGS-W, Keyword #FROZEN_CORE not known and is ignored.
  @GTFLGS-W, Keyword #CONTRACTION not known and is ignored.
  @GTFLGS-W, Keyword #EXCITE not known and is ignored.
  @GTFLGS-W, Keyword #ESTATE_CONV not known and is ignored.
  @GTFLGS-W, Keyword #ESTATE_SYM not known and is ignored.
  @GTFLGS-W, Keyword #SCF_DAMPING not known and is ignored.
  @GTFLGS-W, Keyword #SYMMETRY not known and is ignored.
  @GTFLGS-W, Keyword #HFSTABILITY not known and is ignored.
  @GTFLGS-W, Keyword #OCCUPATION not known and is ignored.
    -------------------------------------------------------------------
                    CFOUR Control Parameters 
    -------------------------------------------------------------------
        External           Internal           Value            Units
          Name               Name
    -------------------------------------------------------------------
       ABCDTYPE             IABCDT         STANDARD     [  0]   ***   
       ANHARMONIC           IANHAR         OFF          [  0]   ***   
       ANH_ALGORIT          IANALG         STANDARD     [  0]   ***   
       ANH_DERIVAT          IANDER         SECOND       [  1]   ***   
       ANH_STEPSIZ          ICUBST             50000          x 10-6  
       ANH_SYMMETR          IANHSM         ABELIAN      [  0]   ***   
       AO_LADDERS           IAOLAD         SINGLEPASS   [  1]   ***   
       BASIS                IBASIS         SPECIAL      [  0]   ***   
       BREIT                IBREIT         OFF          [  0]   ***   
       BRUCK_CONV           IBRTOL          10D-  4             ***   
       BRUECKNER            IBRKNR             OFF      [  0]   ***   
       BUFFERSIZE           IBUFFS            600               ***   
       CACHE_RECS           ICHREC             10               ***   
       CALCLEVEL            ICLLVL           CCSD(T)    [ 22]   ***   
       CCORBOPT             ICCORB             OFF      [  0] x 0.01  
       CC_CONV              ICCCNV          10D-  9             ***   
       CC_EXPORDER          ICCEOR              5               ***   
       CC_EXTRAPOL          ICCEXT             DIIS     [  1]   ***   
       CC_MAXCYC            ICCCYC            999              cycles 
       CC_PROGRAM           ICCPRO         VCC          [  0]   ***   
       CHARGE               ICHRGE              1               ***   
       CHOLESKY             ICHOLE         OFF          [  0]   ***   
       CIS_CONV             ICISTL              5               ***   
       COMM_SIZE            IPSIZE            ***               ***   
       CONSTANT             ICONST         OLD          [  1]   ***   
       CONTINUUM            ICONTU         NONE         [  0]   ***   
       CONTRACTION          ICNTYP          GENERAL     [  1]   ***   
       COORDINATES          ICOORD         INTERNAL     [  0]   ***   
       CPHF_CONVER          ICPHFT          10D- 16             ***   
       CPHF_MAXCYC          ICPHFC             64              cycles 
       CUBIC                ICUBIC         OFF          [  0]   ***   
       CURVILINEAR          ICURVY            OFF       [  0]   ***   
       DBOC                 IDBOC          OFF          [  0]   ***   
       DCT                  IDCT           OFF          [  0]   ***   
       DERIV_LEV            IDRLVL            ZERO      [  0]   ***   
       DIAG_MRCC            IEOMST          10D-  0             ***   
       DIFF_TYPE            IDIFTY         RELAXED      [  0]   ***   
       DIRECT               IDIRCT         OFF          [  0]   ***   
       DROPMO               IDRPMO A   1,
                                   B   1,
       ECP                  IECP           OFF          [  0]   ***   
       EIGENVECTOR          IVEC                1               ***   
       EL_ANHARM            IELANH         OFF          [  0]   ***   
       EOMFOLLOW            IEOMSR         ENERGY       [  0]   ***   
       EOM_MRCC             IMRCCE         NEW          [  1]   ***   
       EOM_NONIT            EOMNON         OFF          [  0]   ***   
       EOM_NSING            IEOMSI          10D-  0             ***   
       EOM_NSTATES          IMRCCD         DAVIDSON     [  0]   ***   
       EOM_NTRIP            IEOMTR          10D-  0             ***   
       EOM_ORDER            IEXORD         ENERGY       [  0]   ***   
       ESTATE_CONV          IEXTOL          10D-  5             ***   
       ESTATE_DIAG          IEXDIG         ITERATIVE    [  0]   ***   
       ESTATE_LOCK          IESLOC         ON           [  1]   ***   
       ESTATE_MAXC          IEXMXC             20               ***   
       ESTATE_PROP          IEXPRP         OFF          [  0]   ***   
       EVAL_HESS            IRECAL              0            # of cyc.
       EXCITATION           IEXCIT              0               ***   
       EXCITE               IEXCIT         NONE         [  0]   ***   
       FCGRADNEW            IFCGNW         OFF          [  0]   ***   
       FC_FIELD             IFINFC              0             x 10-6  
       FD_CALTYPE           IFDCAL         GRADONLY     [  0]   ***   
       FD_PROJECT           IFDPRJ         OFF          [  1]   ***   
       FD_STEPSIZE          IDISFD              0            10-4 bohr
       FD_USEGROUP          IFDGRP         FULL         [  0]   ***   
       FILE_RECSIZ          IFLREC              4096           words  
       FINITE_PERT          IFIPER              0             x 10-6  
       FIXGEOM              IFIXGM         OFF          [  0]   ***   
       FOCK                 IFOCK          AO           [  1]   ***   
       FREQ_ALGORI          IVIALG         STANDARD     [  0]   ***   
       FROZEN_CORE          IFROCO         OFF          [  0]   ***   
       FROZEN_VIRT          IFROVI         OFF          [  0]   ***   
       GAMMA_ABCD           IGABCD         STORE        [  0]   ***   
       GAMMA_ABCI           IGABCI         STORE        [  0]   ***   
       GENBAS_1             IGNBS1              0               ***   
       GENBAS_2             IGNBS2              0               ***   
       GENBAS_3             IGNBS3              0               ***   
       GENBAS_4             IGNBS4              0               ***   
       GEO_CONV             ICONTL              5              H/bohr 
       GEO_MAXCYC           IOPTCY             50               ***   
       GEO_MAXSTEP          IMXSTP            300            millibohr
       GEO_METHOD           INR            SINGLE_POINT [  5]   ***   
       GIAO                 IGIAO          OFF          [  1]   ***   
       GIMIC                IGIMIC         OFF          [  0]   ***   
       GRID                 IGRID          OFF          [  0]   ***   
       GRID_ALGO            IGALGO         SERIAL       [  0]   ***   
       GUESS                IGUESS            MOREAD    [  0]   ***   
       HBAR                 IHBAR              OFF      [  0]   ***   
       HESS_TYPE            IHESTP         SCF          [  0]   ***   
       HF2_FILE             IHF2Fl         USE          [  1]   ***   
       HFSTABILITY          ISTABL         OFF          [  0]   ***   
       INCORE               INCORE             OFF      [  0]   ***   
       INPUT_MRCC           IMRCC          OFF          [  0]   ***   
       INTEGRALS            INTTYP             VMOL     [  1]   ***   
       JODA_PRINT           IJPRNT              4               ***   
       LINDEP_TOL           ILINDP              8               ***   
       LINEQ_CONV           IZTACN          10D-  7           cycles  
       LINEQ_EXPOR          ILMAXD              5               ***   
       LINEQ_MAXCY          ILMAXC             50               ***   
       LINEQ_TYPE           ILTYPE         DIIS         [  1]   ***   
       LOCK_ORBOCC          ILOCOC             OFF      [  0]   ***   
       MEMORY_SIZE          IMEMSZ         250000000           words  
       MEM_UNIT             IMEMU          GB           [  3]   ***   
       MRCC                 IMRCCC         OFF          [  0]   ***   
       MULTIPLICTY          IMULTP              2               ***   
       NEGEVAL              IDIE             ABORT      [  0]   ***   
       NEWNORM              INEWNO         OFF          [  0]   ***   
       NON-HF               INONHF              ON      [  1]   ***   
       NTOP_TAMP            ITOPT2             15               ***   
       NUC_MODEL            INUCMO         POINT        [  0]   ***   
       OCCUPATION           IOCCU   ESTIMATED BY SCF 
       OPEN-SHELL           IOPEN          SPIN-ORBITAL [  0]   ***   
       ORBITALS             IORBTP         SEMICANONICAL[  1]   ***   
       PARALLEL             IPARAL         ON           [  1]   ***   
       PARA_INT             IPINTS         ON           [  1]   ***   
       PARA_PRINT           IPPRIN              0               ***   
       PERT_ORB             IPTORB         STANDARD     [  0]   ***   
       POINTS               IGRDFD              0               ***   
       PRINT                IPRNT               4               ***   
       PROPS                IPROPS             OFF      [  0]   ***   
       PROP_INTEGR          IINTYP         INTERNAL     [  0]   ***   
       PSI                  IPSI           OFF          [  0]   ***   
       QUARTIC              IQUART         OFF          [  0]   ***   
       RAMAN_INT            IRAMIN         OFF          [  0]   ***   
       RAMAN_ORB            IRAMRE         UNRELAXED    [  0]   ***   
       RDO                  IRDOFM             OFF      [  0]   ***   
       REFERENCE            IREFNC             ROHF     [  2]   ***   
       RELATIVIST           IRELAT         OFF          [  0]   ***   
       RELAX_DENS           IRDENS             OFF      [  0]   ***   
       RESET_FLAGS          IRESET             OFF      [  0]   ***   
       RESTART_CC           ICCRES         OFF          [  0]   ***   
       ROT_EVEC             ROTVEC              0               ***   
       SAVE_INTS            ISVINT              ON      [  1]   ***   
       SCALE_ON             ISTCRT              0               ***   
       SCF_CONV             ISCFCV          10D- 14             ***   
       SCF_DAMPING          IDAMP               0             x 10-3  
       SCF_EXPORDE          IRPPOR              6               ***   
       SCF_EXPSTAR          IRPPLS              5               ***   
       SCF_EXTRAPO          IRPP                ON      [  1]   ***   
       SCF_MAXCYC           ISCFCY            ***              cycles 
       SCF_NOSTOP           ISCFST         OFF          [  0]   ***   
       SCF_PRINT            ISCFPR              0               ***   
       SD_FIELD             IFINSD              0             x 10-6  
       SEQUENCE             ISEQUE         OFF          [  0]   ***   
       SOPERT               IPERSO         OFF          [  0]   ***   
       SPHERICAL            IDFGHI             ON       [  1]   ***   
       SPINORBIT            ISOCAL         OFF          [  0]   ***   
       SPINROTATIO          ISRCON         OFF          [  0]   ***   
       SPIN_FLIP            ISPFLP         OFF          [  0]   ***   
       SPIN_ORBIT           ISPORB         OFF          [  0]   ***   
       SPIN_SCAL            ISCSMP         OFF          [  0]   ***   
       SUBGROUP             ISUBGP         DEFAULT      [  0]   ***   
       SUBGRPAXIS           ISBXYZ         X            [  0]   ***   
       SYMMETRY             ISYM             ON         [  0]   ***   
       SYM_CHECK            ISYMCK         OVERRIDE     [  1]   ***   
       T3_EXTRAPOL          IT3EXT         ON           [  1]   ***   
       TAMP_SUM             IEVERY              5               ***   
       TESTSUITE            ITESTS         OFF          [  0]   ***   
       THERMOCH             ITHERM         OFF          [  0]   ***   
       TOL_CHOLESK          ITOLCH          10D-  4             ***   
       TRANGRAD             IRESRM         OFF          [  0]   ***   
       TRANS_INV            ITRAIN         USE          [  0]   ***   
       TREAT_PERT           ITREAT         SIMULTANEOUS [  0]   ***   
       UIJ_THRESHO          IUIJTH              1               ***   
       UNITS                IUNITS         BOHR         [  1]   ***   
       UNOS                 IUNOS          OFF          [  0]   ***   
       UPDATE_HESS          IHUPDT         ON           [  1]   ***   
       VIBPHASE             ISETPH         STANDARD     [  0]   ***   
       VIBRATION            IVIB              NO        [  0]   ***   
       VIB_ALGORIT          IGEALG         STANDARD     [  0]   ***   
       VNATORB              IVNORB         OFF          [  0]   ***   
       VTRAN                IVTRAN         FULL/PARTIAL [  0]   ***   
       XFIELD               IXEFLD              0             x 10-6  
       XFORM_TOL            IXFTOL          10D- 18             ***   
       YFIELD               IYEFLD              0             x 10-6  
       ZFIELD               IZEFLD              0             x 10-6  
    -------------------------------------------------------------------
   2 entries found in Z-matrix 
   Job Title : TITLE                                                                           
 Variable names read by FETCHZ
  1           
  2           
  3           
  4 R         
  5           
  6           
 Atomic symbols read by FETCHZ
  1 Li   
  2 F    
 Connectivity matrix read by FETCHZ
  1   0
  2   0
  3   0
  4   1
  5   0
  6   0
   There are  1 unique internal coordinates.
   Of these,  0 will be optimized.
   User supplied Z-matrix: 
--------------------------------------------------------------------------------
       SYMBOL    BOND      LENGTH    ANGLE     ANGLE     DIHED     ANGLE
                  TO      (ANGST)    WRT      (DEG)      WRT      (DEG)
--------------------------------------------------------------------------------
        Li   
        F          1         R    
                  *Initial values for internal coordinates* 
                      Name             Value
                        R               2.9553426863
--------------------------------------------------------------------------------
  1  LI         3     7.01600
  2  F          9    18.99840
    7.0160030000
   18.9984032200
 After translation to center of mass coordinates 
        0.000000000000    0.000000000000   -2.158296119957
        0.000000000000    0.000000000000    0.797046566343
  Inertia tensor (amu*bohr**2)
   44.75161    0.00000    0.00000
    0.00000   44.75161    0.00000
    0.00000    0.00000    0.00000
    Inertia tensor:
       44.751607780849    0.000000000000    0.000000000000
        0.000000000000   44.751607780849    0.000000000000
        0.000000000000    0.000000000000    0.000000000000
    Principal axis orientation for molecular system: 
        0.000000000000    0.000000000000    2.158296119957
        0.000000000000    0.000000000000   -0.797046566343
    Diagonalized inertia tensor:
       44.751607780849    0.000000000000    0.000000000000
        0.000000000000   44.751607780849    0.000000000000
        0.000000000000    0.000000000000    0.000000000000
    Eigenvectors of inertia tensor: 
        1.000000000000    0.000000000000    0.000000000000
        0.000000000000    1.000000000000    0.000000000000
        0.000000000000    0.000000000000   -1.000000000000
 factor:   60.1997200000000     
   Rotational constants (in cm-1): 
          1.3451968093             1.3451968093
   Rotational constants (in MHz): 
      40327.9914466518         40327.9914466518
  @SYMMETRY-I, Handedness of inertial frame:-1.00000
  @SYMMETRY-I, Sense of inertial frame y-axis will be changed.
  @SYMMETRY-I, The symmetry group is 2-fold degenerate.
  @SYMMETRY-I, The molecule belongs to a point group with doubly degenerate representations.
  @SYMMETRY-I, The molecule is linear.
   Principal axis orientation for molecule:
        0.000000000000    0.000000000000    2.158296119957
        0.000000000000    0.000000000000   -0.797046566343
   Rotation about  3 is a valid symmetry operation 
   Reflection in plane  2 is a valid symmetry operation.
   Reflection in plane  1 is a valid symmetry operation.
  Symmetry bits:    3   4   0
********************************************************************************
   The full molecular point group is CXv .
   The largest Abelian subgroup of the full molecular point group is C2v .
   The computational point group is C2v .
********************************************************************************
--------------------------------------------------------------------------------
   Analysis of internal coordinates specified by Z-matrix 
--------------------------------------------------------------------------------
   *The nuclear repulsion energy is    9.135996351679673 a.u.
   *There is   1 degree of freedom within the tot. symm. molecular subspace.
   *Z-matrix requests optimization of   0 coordinates.
   *The optimization is constrained.
   *The following   1 parameters can have non-zero 
    derivatives within the totally symmetric subspace:
             R    [ 1]
   *The following   0 parameters are to be optimized:

   *The following coordinates must be varied in an  unconstrained optimization.
             R    [ 1]
--------------------------------------------------------------------------------
 ----------------------------------------------------------------
 Z-matrix   Atomic            Coordinates (in bohr)
  Symbol    Number           X              Y              Z
 ----------------------------------------------------------------
     LI        3         0.00000000     0.00000000     2.15829612
     F         9         0.00000000     0.00000000    -0.79704657
 ----------------------------------------------------------------
   Interatomic distance matrix (Angstroms) 
 
                 LI            F    
                [ 1]        [ 2]
  LI   [ 1]     0.00000
  F    [ 2]     1.56390     0.00000
  Inertia tensor (amu*bohr**2)
   44.75161    0.00000    0.00000
    0.00000   44.75161    0.00000
    0.00000    0.00000    0.00000
   Rotational constants (in cm-1): 
          1.3451968093             0.0000000000
   Rotational constants (in MHz): 
      40327.9914466518             0.0000000000
  @GTFLGS-W, Keyword #GEOM not known and is ignored.
  @GTFLGS-W, Keyword #COORD not known and is ignored.
  @GTFLGS-W, Keyword #CC_PROG not known and is ignored.
  @GTFLGS-W, Keyword #FROZEN_CORE not known and is ignored.
  @GTFLGS-W, Keyword #CONTRACTION not known and is ignored.
  @GTFLGS-W, Keyword #EXCITE not known and is ignored.
  @GTFLGS-W, Keyword #ESTATE_CONV not known and is ignored.
  @GTFLGS-W, Keyword #ESTATE_SYM not known and is ignored.
  @GTFLGS-W, Keyword #SCF_DAMPING not known and is ignored.
  @GTFLGS-W, Keyword #SYMMETRY not known and is ignored.
  @GTFLGS-W, Keyword #HFSTABILITY not known and is ignored.
  @GTFLGS-W, Keyword #OCCUPATION not known and is ignored.
  There are   50 basis functions.
 @GEOPT-W, Archive file not created for single-point calculation.
  @CHECKOUT-I, Total execution time (CPU/WALL):        0.42/       0.86 seconds.
--executable xjoda finished with status     0 in        1.01 seconds (walltime).
 --invoking executable--
/project1/nike/cfour_v2.00beta_May2019xnmol_noLABBASIS/bin/xvmol
Running with 1 threads/proc

********************************************************************************
                   INPUT FROM MOL FILE                                          
********************************************************************************
INTGRL        1    0    1    0    0    0    0    0    0
         *** CFOUR Program System (Release V0.1) *** 
TITLE
    2    2 X  Y       0.10E-08              0    0
   9999.00      3.00
          3.00000000    1    3    1    1    1
LI#1   0.000000000000000   0.000000000000000   2.158296119956774
   11    5
   6269.26280100000       2.054096882600000E-004  0.000000000000000E+000
  0.000000000000000E+000  0.000000000000000E+000  0.000000000000000E+000
   940.316124310000       1.591655408900000E-003  0.000000000000000E+000
  0.000000000000000E+000  0.000000000000000E+000  0.000000000000000E+000
   214.221075280000       8.286982970700000E-003  0.000000000000000E+000
  0.000000000000000E+000  0.000000000000000E+000  0.000000000000000E+000
   60.7598401840000       3.385637424900000E-002  0.000000000000000E+000
  0.000000000000000E+000  0.000000000000000E+000  0.000000000000000E+000
   19.9151520320000       0.111032258760000       0.000000000000000E+000
  0.000000000000000E+000  0.000000000000000E+000  0.000000000000000E+000
   7.31715097970000       0.274493833290000       0.000000000000000E+000
  0.000000000000000E+000  0.000000000000000E+000  0.000000000000000E+000
   2.97246742160000       0.000000000000000E+000  0.237924564110000     
  0.000000000000000E+000  0.000000000000000E+000  0.000000000000000E+000
   1.26398523140000       0.000000000000000E+000  0.307654119240000     
  0.000000000000000E+000  0.000000000000000E+000  0.000000000000000E+000
  0.514274899530000       0.000000000000000E+000  0.000000000000000E+000
   1.00000000000000       0.000000000000000E+000  0.000000000000000E+000
  7.703088590100000E-002  0.000000000000000E+000  0.000000000000000E+000
  0.000000000000000E+000   1.00000000000000       0.000000000000000E+000
  2.893889643300000E-002  0.000000000000000E+000  0.000000000000000E+000
  0.000000000000000E+000  0.000000000000000E+000   1.00000000000000     
    3    3
  0.400000000000000        1.00000000000000       0.000000000000000E+000
  0.000000000000000E+000
  6.000000000000000E-002  0.000000000000000E+000   1.00000000000000     
  0.000000000000000E+000
   3.32700000000000       0.000000000000000E+000  0.000000000000000E+000
   1.00000000000000     
    1    1
  0.131900000000000        1.00000000000000     
          9.00000000    1    4    1    1    1    1
F #2   0.000000000000000   0.000000000000000  -0.797046566343226
   11    5
   35479.1004410000       2.154501488800000E-004  0.000000000000000E+000
  0.000000000000000E+000  0.000000000000000E+000  0.000000000000000E+000
   5318.47289830000       1.670068652700000E-003  0.000000000000000E+000
  0.000000000000000E+000  0.000000000000000E+000  0.000000000000000E+000
   1210.48109750000       8.673321147599999E-003  0.000000000000000E+000
  0.000000000000000E+000  0.000000000000000E+000  0.000000000000000E+000
   342.855181400000       3.504993317500000E-002  0.000000000000000E+000
  0.000000000000000E+000  0.000000000000000E+000  0.000000000000000E+000
   112.019431810000       0.111653201330000       0.000000000000000E+000
  0.000000000000000E+000  0.000000000000000E+000  0.000000000000000E+000
   40.7147402480000       0.259885066470000       0.000000000000000E+000
  0.000000000000000E+000  0.000000000000000E+000  0.000000000000000E+000
   16.0396781110000       0.000000000000000E+000  0.394229668800000     
  0.000000000000000E+000  0.000000000000000E+000  0.000000000000000E+000
   6.50381867400000       0.000000000000000E+000  0.249982385510000     
  0.000000000000000E+000  0.000000000000000E+000  0.000000000000000E+000
   1.54404775090000       0.000000000000000E+000  0.000000000000000E+000
   1.00000000000000       0.000000000000000E+000  0.000000000000000E+000
  0.612234528620000       0.000000000000000E+000  0.000000000000000E+000
  0.000000000000000E+000   1.00000000000000       0.000000000000000E+000
  0.240279796980000       0.000000000000000E+000  0.000000000000000E+000
  0.000000000000000E+000  0.000000000000000E+000   1.00000000000000     
    6    3
   80.2339004830000       6.368599913400000E-003  0.000000000000000E+000
  0.000000000000000E+000
   18.5940107430000       4.430314353000000E-002  0.000000000000000E+000
  0.000000000000000E+000
   5.68679026530000       0.168672487080000       0.000000000000000E+000
  0.000000000000000E+000
   1.95110062940000       0.361663462550000       0.000000000000000E+000
  0.000000000000000E+000
  0.669702112980000       0.000000000000000E+000  0.442029014910000     
  0.000000000000000E+000
  0.216513004100000       0.000000000000000E+000  0.000000000000000E+000
  0.243198757300000     
    2    2
   3.10700000000000        1.00000000000000       0.000000000000000E+000
  0.855000000000000       0.000000000000000E+000   1.00000000000000     
    1    1
   1.91700000000000        1.00000000000000     
FINISH
                                                                                
********************************************************************************

ONE- AND TWO-ELECTRON INTEGRALS OVER SYMMETRY-ADAPTED AOS ARE CALCULATED.


    BASIS FUNCTION NOT NORMALIZED:
    CENTER (AS ORDERED IN MOL FILE): ?
    ANGULAR MOMENTUM TYPE:           S
    OFFSET WITHIN ANGULAR MOMENTUM:  1
    <CHI|CHI>:                       0.1571990822

    BASIS FUNCTION NOT NORMALIZED:
    CENTER (AS ORDERED IN MOL FILE): ?
    ANGULAR MOMENTUM TYPE:           S
    OFFSET WITHIN ANGULAR MOMENTUM:  2
    <CHI|CHI>:                       0.2794089154

    BASIS FUNCTION NOT NORMALIZED:
    CENTER (AS ORDERED IN MOL FILE): ?
    ANGULAR MOMENTUM TYPE:           S
    OFFSET WITHIN ANGULAR MOMENTUM:  1
    <CHI|CHI>:                       0.1470459150

    BASIS FUNCTION NOT NORMALIZED:
    CENTER (AS ORDERED IN MOL FILE): ?
    ANGULAR MOMENTUM TYPE:           S
    OFFSET WITHIN ANGULAR MOMENTUM:  2
    <CHI|CHI>:                       0.3879183687

    BASIS FUNCTION NOT NORMALIZED:
    CENTER (AS ORDERED IN MOL FILE): ?
    ANGULAR MOMENTUM TYPE:           P
    OFFSET WITHIN ANGULAR MOMENTUM:  1
    <CHI|CHI>:                       0.2671601553

    BASIS FUNCTION NOT NORMALIZED:
    CENTER (AS ORDERED IN MOL FILE): ?
    ANGULAR MOMENTUM TYPE:           P
    OFFSET WITHIN ANGULAR MOMENTUM:  2
    <CHI|CHI>:                       0.1953896500

    BASIS FUNCTION NOT NORMALIZED:
    CENTER (AS ORDERED IN MOL FILE): ?
    ANGULAR MOMENTUM TYPE:           P
    OFFSET WITHIN ANGULAR MOMENTUM:  3
    <CHI|CHI>:                       0.0591456356
CARTESIAN GAUSSIANS ARE USED.

2 TYPES OF ATOMS
2 SYMMETRY OPERATIONS

REFLECTION IN THE YZ-PLANE
REFLECTION IN THE XZ-PLANE

INTEGRALS LESS THAN 1e-14 ARE NEGLECTED.

ATOMIC TYPE NUMBER 1:
---------------------

    NUCLEAR CHARGE:                       3
    NUMBER OF SYMMETRY INDEPENDENT ATOMS: 1
    HIGHEST ORBITAL TYPE:                 D

    1 GROUPS OF CGTOS OF S TYPE
    1 GROUPS OF CGTOS OF P TYPE
    1 GROUPS OF CGTOS OF D TYPE

    NUCLEAR COORDINATES (IN A.U.) ARE:

    LI#1   0.000000000000000   0.000000000000000   2.158296119956774

ATOMIC TYPE NUMBER 2:
---------------------

    NUCLEAR CHARGE:                       9
    NUMBER OF SYMMETRY INDEPENDENT ATOMS: 1
    HIGHEST ORBITAL TYPE:                 F

    1 GROUPS OF CGTOS OF S TYPE
    1 GROUPS OF CGTOS OF P TYPE
    1 GROUPS OF CGTOS OF D TYPE
    1 GROUPS OF CGTOS OF F TYPE

    NUCLEAR COORDINATES (IN A.U.) ARE:

    F #2   0.000000000000000   0.000000000000000  -0.797046566343226

INTERNUCLEAR DISTANCES (A):

    FOR ATOM LI#1 (COORDINATES:   0.00000   0.00000   2.15830)

    F #2 1 DISTANCE IS   1.56390

    FOR ATOM F #2 (COORDINATES:   0.00000   0.00000  -0.79705)


GROUP MULTIPLICATION TABLE:

    1 2 3 4
    2 1 4 3
    3 4 1 2
    4 3 2 1

GAUSSIAN BASIS INFORMATION:

ATOM                EXPONENT       COEFFICIENTS

LI#1  1  S   
                  1    6269.262801   0.2601467   0.0000000   0.0000000   0.0000000   0.0000000
                  2     940.316124   0.4858358   0.0000000   0.0000000   0.0000000   0.0000000
                  3     214.221075   0.8341193   0.0000000   0.0000000   0.0000000   0.0000000
                  4      60.759840   1.3244574   0.0000000   0.0000000   0.0000000   0.0000000
                  5      19.915152   1.8815769   0.0000000   0.0000000   0.0000000   0.0000000
                  6       7.317151   2.1952005   0.0000000   0.0000000   0.0000000   0.0000000
                  7       2.972467   0.0000000   0.7262181   0.0000000   0.0000000   0.0000000
                  8       1.263985   0.0000000   0.4944919   0.0000000   0.0000000   0.0000000
                  9       0.514275   0.0000000   0.0000000   0.4328193   0.0000000   0.0000000
                 10       0.077031   0.0000000   0.0000000   0.0000000   0.1042098   0.0000000
                 11       0.028939   0.0000000   0.0000000   0.0000000   0.0000000   0.0500059

LI#1  1  X   
                 12       0.400000   0.4534350   0.0000000   0.0000000
                 13       0.060000   0.0000000   0.0423281   0.0000000
                 14       3.327000   0.0000000   0.0000000   6.4048076

LI#1  1  Y   
                 15       0.400000   0.4534350   0.0000000   0.0000000
                 16       0.060000   0.0000000   0.0423281   0.0000000
                 17       3.327000   0.0000000   0.0000000   6.4048076

LI#1  1  Z   
                 18       0.400000   0.4534350   0.0000000   0.0000000
                 19       0.060000   0.0000000   0.0423281   0.0000000
                 20       3.327000   0.0000000   0.0000000   6.4048076

LI#1  1  XX  
                 21       0.131900   0.0822997

LI#1  1  XY  
                 22       0.131900   0.0822997

LI#1  1  XZ  
                 23       0.131900   0.0822997

LI#1  1  YY  
                 24       0.131900   0.0822997

LI#1  1  YZ  
                 25       0.131900   0.0822997

LI#1  1  ZZ  
                 26       0.131900   0.0822997

F #2  1  S   
                 27   35479.100441   1.0351657   0.0000000   0.0000000   0.0000000   0.0000000
                 28    5318.472898   1.9331170   0.0000000   0.0000000   0.0000000   0.0000000
                 29    1210.481098   3.3081679   0.0000000   0.0000000   0.0000000   0.0000000
                 30     342.855181   5.1904360   0.0000000   0.0000000   0.0000000   0.0000000
                 31     112.019432   7.1453715   0.0000000   0.0000000   0.0000000   0.0000000
                 32      40.714740   7.7853598   0.0000000   0.0000000   0.0000000   0.0000000
                 33      16.039678   0.0000000   3.6156465   0.0000000   0.0000000   0.0000000
                 34       6.503819   0.0000000   1.1649993   0.0000000   0.0000000   0.0000000
                 35       1.544048   0.0000000   0.0000000   0.9872011   0.0000000   0.0000000
                 36       0.612235   0.0000000   0.0000000   0.0000000   0.4932856   0.0000000
                 37       0.240280   0.0000000   0.0000000   0.0000000   0.0000000   0.2445953

F #2  1  X   
                 38      80.233900   4.2174078   0.0000000   0.0000000
                 39      18.594011   4.7174264   0.0000000   0.0000000
                 40       5.686790   4.0849101   0.0000000   0.0000000
                 41       1.951101   2.2998974   0.0000000   0.0000000
                 42       0.669702   0.0000000   0.8635593   0.0000000
                 43       0.216513   0.0000000   0.0000000   0.2105208

F #2  1  Y   
                 44      80.233900   4.2174078   0.0000000   0.0000000
                 45      18.594011   4.7174264   0.0000000   0.0000000
                 46       5.686790   4.0849101   0.0000000   0.0000000
                 47       1.951101   2.2998974   0.0000000   0.0000000
                 48       0.669702   0.0000000   0.8635593   0.0000000
                 49       0.216513   0.0000000   0.0000000   0.2105208

F #2  1  Z   
                 50      80.233900   4.2174078   0.0000000   0.0000000
                 51      18.594011   4.7174264   0.0000000   0.0000000
                 52       5.686790   4.0849101   0.0000000   0.0000000
                 53       1.951101   2.2998974   0.0000000   0.0000000
                 54       0.669702   0.0000000   0.8635593   0.0000000
                 55       0.216513   0.0000000   0.0000000   0.2105208

F #2  1  XX  
                 56       3.107000  20.7284714   0.0000000
                 57       0.855000   0.0000000   2.1672588

F #2  1  XY  
                 58       3.107000  20.7284714   0.0000000
                 59       0.855000   0.0000000   2.1672588

F #2  1  XZ  
                 60       3.107000  20.7284714   0.0000000
                 61       0.855000   0.0000000   2.1672588

F #2  1  YY  
                 62       3.107000  20.7284714   0.0000000
                 63       0.855000   0.0000000   2.1672588

F #2  1  YZ  
                 64       3.107000  20.7284714   0.0000000
                 65       0.855000   0.0000000   2.1672588

F #2  1  ZZ  
                 66       3.107000  20.7284714   0.0000000
                 67       0.855000   0.0000000   2.1672588

F #2  1  F300
                 68       1.917000  24.6547063

F #2  1  F210
                 69       1.917000  24.6547063

F #2  1  F201
                 70       1.917000  24.6547063

F #2  1  F120
                 71       1.917000  24.6547063

F #2  1  F111
                 72       1.917000  24.6547063

F #2  1  F102
                 73       1.917000  24.6547063

F #2  1  F030
                 74       1.917000  24.6547063

F #2  1  F021
                 75       1.917000  24.6547063

F #2  1  F012
                 76       1.917000  24.6547063

F #2  1  F003
                 77       1.917000  24.6547063

SYMMETRY TRANSFORMATION INTO 50 SYMMETRY-ADAPTED BASIS FUNCTIONS

    IRREDUCIBLE REPRESENTATION NUMBER 1

    1    1 LI#1 S      1   1.0
    2    2 LI#1 S      2   1.0
    3    3 LI#1 S      3   1.0
    4    4 LI#1 S      4   1.0
    5    5 LI#1 S      5   1.0
    6    6 LI#1 Z     12   1.0
    7    7 LI#1 Z     13   1.0
    8    8 LI#1 Z     14   1.0
    9    9 LI#1 XX    15  -1.0  18  -1.0  20   2.0
   10   10 LI#1 YY    15   1.0  18  -1.0
   11   11 LI#1 ZZ    21   1.0
   12   12 F #2 S     22   1.0
   13   13 F #2 S     23   1.0
   14   14 F #2 S     24   1.0
   15   15 F #2 S     25   1.0
   16   16 F #2 S     32   1.0
   17   17 F #2 Z     33   1.0
   18   18 F #2 Z     34   1.0
   19   19 F #2 Z     35  -1.0  41  -1.0  45   2.0
   20   20 F #2 XX    36  -1.0  42  -1.0  46   2.0
   21   21 F #2 XX    35   1.0  41  -1.0
   22   22 F #2 YY    36   1.0  42  -1.0
   23   23 F #2 YY    49  -3.0  54  -3.0  56   2.0
   24   24 F #2 ZZ    49   1.0  54  -1.0
   25   25 F #2 ZZ     6   1.0
   26   26 F #2 F201   7   1.0
   27   27 F #2 F021   8   1.0
   28   28 F #2 F003  17   1.0

    IRREDUCIBLE REPRESENTATION NUMBER 2

   29    1 LI#1 X     26   1.0
   30    2 LI#1 X     27   1.0
   31    3 LI#1 X     28   1.0
   32    4 LI#1 XZ    39   1.0
   33    5 F #2 X     40   1.0
   34    6 F #2 X     47  -1.0  50  -1.0  52   4.0
   35    7 F #2 X     47   1.0  50  -3.0
   36    8 F #2 XZ     9   1.0
   37    9 F #2 XZ    10   1.0
   38   10 F #2 F300  11   1.0
   39   11 F #2 F120  19   1.0
   40   12 F #2 F102  29   1.0

    IRREDUCIBLE REPRESENTATION NUMBER 3

   41    1 LI#1 Y     30   1.0
   42    2 LI#1 Y     31   1.0
   43    3 LI#1 Y     43   1.0
   44    4 LI#1 YZ    44   1.0
   45    5 F #2 Y     48  -1.0  53  -1.0  55   4.0
   46    6 F #2 Y     48   3.0  53  -1.0
   47    7 F #2 Y     16   1.0
   48    8 F #2 YZ    37   1.0
   49    9 F #2 YZ    38   1.0
   50   10 F #2 F210  51   1.0
   51   11 F #2 F030
   52   12 F #2 F012

    IRREDUCIBLE REPRESENTATION NUMBER 4

   53    1 LI#1 XY  
   54    2 F #2 XY  
   55    3 F #2 XY  
   56    4 F #2 F111

NUCLEAR REPULSION ENERGY:    9.1359963517 A.U.

One-electron integrals took 0.010376 seconds

  @TWOEL-I,      28758 INTEGRALS OF SYMMETRY TYPE  I I I I
  @TWOEL-I,      67912 INTEGRALS OF SYMMETRY TYPE  I J I J
  @TWOEL-I,      39066 INTEGRALS OF SYMMETRY TYPE  I I J J
  @TWOEL-I,      29850 INTEGRALS OF SYMMETRY TYPE  I J K L
  @TWOEL-I, TOTAL NUMBER OF 2-E INTEGRALS     165586

Two-electron integrals took 0.944974 seconds

Nuclear repulsion energy: 9.135996351680
--executable xvmol finished with status     0 in        1.55 seconds (walltime).
 --invoking executable--
/project1/nike/cfour_v2.00beta_May2019xnmol_noLABBASIS/bin/xvmol2ja
--executable xvmol2ja finished with status     0 in        0.06 seconds (walltime).
 --invoking executable--
/project1/nike/cfour_v2.00beta_May2019xnmol_noLABBASIS/bin/xvscf
  There are   50 functions in the AO basis.

  There are 4 irreducible representations.

       Irrep        # of functions
         1                 24
         2                 11
         3                 11
         4                  4


  Parameters for SCF calculation: 
        SCF reference function: ROHF  
  Maximum number of iterations: ****
     Full symmetry point group: CXv 
     Computational point group: C2v 
        Initial density matrix: CORE                   
     SCF convergence tolerance: 10**(-14)
  DIIS convergence acceleration:  ON
          Latest start for DIIS:   5
                     DIIS order:   6

  Memory information:     150428 words required.
  Fock matrices are constructed from AO integral file.
 @GETMEM-I,  Allocated       1 MB of main memory.
  Initialization and symmetry analysis required      0.002 seconds.

  @INITGES-I, Occupancies from core Hamiltonian:

          Alpha population by irrep:   4    1    1    0
           Beta population by irrep:   3    1    1    0


 total no. of electrons in initial guess :  0.000000000000000E+000
 total no. of electrons in initial guess :  0.000000000000000E+000
  --------------------------------------------------------------------
  Iteration         Total Energy            Largest Density Difference
  --------------------------------------------------------------------
       0             9.135996351679673              0.0000000000D+00
   current occupation vector 
     4  1  1  0
     3  1  1  0
  processed                  28758  ao basis integrals from 
                    48  buffers.
  processed                  39066  ao basis integrals from 
                    66  buffers.
  processed                  67912  ao basis integrals from 
                   114  buffers.
       1           -92.509291798010736              0.1545682291D+01
   current occupation vector 
     4  1  1  0
     3  1  1  0
  processed                  28758  ao basis integrals from 
                    48  buffers.
  processed                  39066  ao basis integrals from 
                    66  buffers.
  processed                  67912  ao basis integrals from 
                   114  buffers.
       2           -88.204757624427344              0.1537750247D+01
   current occupation vector 
     4  1  1  0
     3  1  1  0
  processed                  28758  ao basis integrals from 
                    48  buffers.
  processed                  39066  ao basis integrals from 
                    66  buffers.
  processed                  67912  ao basis integrals from 
                   114  buffers.
       3           -98.687209424391909              0.1148852190D+01
   current occupation vector 
     4  1  1  0
     3  1  1  0
  processed                  28758  ao basis integrals from 
                    48  buffers.
  processed                  39066  ao basis integrals from 
                    66  buffers.
  processed                  67912  ao basis integrals from 
                   114  buffers.
       4           -93.914271279893740              0.1054439789D+01
   current occupation vector 
     4  1  1  0
     4  1  0  0
 
 sum over diagonal and offdiagdiagonal of C(T)*S*C for irrep
                     1
 -6.128431095930864E-014 -6.861037367874509E-015
 reorthoganalization of MOs is carried out
 sum over diagonal and offdiagdiagonal of C(T)*S*C for irrep
                     1
  5.884182030513330E-015  2.399750649092383E-015
 
 sum over diagonal and offdiagdiagonal of C(T)*S*C for irrep
                     2
  3.741451592986778E-014  2.457151116825277E-014
 reorthoganalization of MOs is carried out
 sum over diagonal and offdiagdiagonal of C(T)*S*C for irrep
                     2
  1.110223024625157E-016 -4.955523720148284E-016
 
 sum over diagonal and offdiagdiagonal of C(T)*S*C for irrep
                     3
  3.419486915845482E-014  1.763982924789618E-014
 reorthoganalization of MOs is carried out
 sum over diagonal and offdiagdiagonal of C(T)*S*C for irrep
                     3
  0.000000000000000E+000  2.858582635038446E-016
 
 sum over diagonal and offdiagdiagonal of C(T)*S*C for irrep
                     4
 -2.664535259100376E-015 -3.584318172128453E-015
 reorthoganalization of MOs is carried out
 sum over diagonal and offdiagdiagonal of C(T)*S*C for irrep
                     4
  2.220446049250313E-016  1.546614399050572E-016
  processed                  28758  ao basis integrals from 
                    48  buffers.
  processed                  39066  ao basis integrals from 
                    66  buffers.
  processed                  67912  ao basis integrals from 
                   114  buffers.
       5           -99.963027529161764              0.1054430842D+01
   current occupation vector 
     4  1  1  0
     3  1  1  0
  processed                  28758  ao basis integrals from 
                    48  buffers.
  processed                  39066  ao basis integrals from 
                    66  buffers.
  processed                  67912  ao basis integrals from 
                   114  buffers.
       6          -106.058912749806836              0.6754310759D+00
   current occupation vector 
     4  1  1  0
     4  1  0  0
  processed                  28758  ao basis integrals from 
                    48  buffers.
  processed                  39066  ao basis integrals from 
                    66  buffers.
  processed                  67912  ao basis integrals from 
                   114  buffers.
       7          -106.582122228137763              0.1268596398D+00
   current occupation vector 
     4  1  1  0
     4  1  0  0
  processed                  28758  ao basis integrals from 
                    48  buffers.
  processed                  39066  ao basis integrals from 
                    66  buffers.
  processed                  67912  ao basis integrals from 
                   114  buffers.
       8          -106.624427239244994              0.2364215993D-01
   current occupation vector 
     4  1  1  0
     4  1  0  0
  processed                  28758  ao basis integrals from 
                    48  buffers.
  processed                  39066  ao basis integrals from 
                    66  buffers.
  processed                  67912  ao basis integrals from 
                   114  buffers.
       9          -106.632635992137210              0.1308733249D-01
   current occupation vector 
     4  1  1  0
     4  1  0  0
 
 sum over diagonal and offdiagdiagonal of C(T)*S*C for irrep
                     1
  4.429789868254375E-014 -1.596118912410546E-014
 reorthoganalization of MOs is carried out
 sum over diagonal and offdiagdiagonal of C(T)*S*C for irrep
                     1
  1.110223024625157E-015 -4.182545061078992E-016
 
 sum over diagonal and offdiagdiagonal of C(T)*S*C for irrep
                     2
  4.285460875053104E-014 -4.927723838257505E-016
 reorthoganalization of MOs is carried out
 sum over diagonal and offdiagdiagonal of C(T)*S*C for irrep
                     2
 -1.110223024625157E-016 -1.156099854369499E-015
 
 sum over diagonal and offdiagdiagonal of C(T)*S*C for irrep
                     3
  1.176836406102666E-014 -6.056702329621909E-015
 reorthoganalization of MOs is carried out
 sum over diagonal and offdiagdiagonal of C(T)*S*C for irrep
                     3
 -8.881784197001252E-016 -2.319507280350643E-016
 
 sum over diagonal and offdiagdiagonal of C(T)*S*C for irrep
                     4
  1.110223024625157E-016 -2.243059287843161E-015
 reorthoganalization of MOs is carried out
 sum over diagonal and offdiagdiagonal of C(T)*S*C for irrep
                     4
 -4.440892098500626E-016  1.803976889744319E-016
  processed                  28758  ao basis integrals from 
                    48  buffers.
  processed                  39066  ao basis integrals from 
                    66  buffers.
  processed                  67912  ao basis integrals from 
                   114  buffers.
      10          -106.632672213225703              0.2947619178D-02
   current occupation vector 
     4  1  1  0
     4  1  0  0
  processed                  28758  ao basis integrals from 
                    48  buffers.
  processed                  39066  ao basis integrals from 
                    66  buffers.
  processed                  67912  ao basis integrals from 
                   114  buffers.
      11          -106.632677307771985              0.1445472445D-02
   current occupation vector 
     4  1  1  0
     4  1  0  0
  processed                  28758  ao basis integrals from 
                    48  buffers.
  processed                  39066  ao basis integrals from 
                    66  buffers.
  processed                  67912  ao basis integrals from 
                   114  buffers.
      12          -106.632677690259129              0.3574783612D-03
   current occupation vector 
     4  1  1  0
     4  1  0  0
  processed                  28758  ao basis integrals from 
                    48  buffers.
  processed                  39066  ao basis integrals from 
                    66  buffers.
  processed                  67912  ao basis integrals from 
                   114  buffers.
      13          -106.632677701115227              0.3953495963D-04
   current occupation vector 
     4  1  1  0
     4  1  0  0
  processed                  28758  ao basis integrals from 
                    48  buffers.
  processed                  39066  ao basis integrals from 
                    66  buffers.
  processed                  67912  ao basis integrals from 
                   114  buffers.
      14          -106.632677701842226              0.1186240901D-04
   current occupation vector 
     4  1  1  0
     4  1  0  0
 
 sum over diagonal and offdiagdiagonal of C(T)*S*C for irrep
                     1
 -1.820765760385257E-014 -4.540107222163563E-015
 reorthoganalization of MOs is carried out
 sum over diagonal and offdiagdiagonal of C(T)*S*C for irrep
                     1
  1.110223024625157E-015  4.046640085011152E-015
 
 sum over diagonal and offdiagdiagonal of C(T)*S*C for irrep
                     2
  1.887379141862766E-014  4.984649885235257E-015
 reorthoganalization of MOs is carried out
 sum over diagonal and offdiagdiagonal of C(T)*S*C for irrep
                     2
  4.440892098500626E-016 -4.983834923734712E-016
 
 sum over diagonal and offdiagdiagonal of C(T)*S*C for irrep
                     3
  1.587618925213974E-014  3.350422252782354E-015
 reorthoganalization of MOs is carried out
 sum over diagonal and offdiagdiagonal of C(T)*S*C for irrep
                     3
 -4.440892098500626E-016  1.557116879677586E-017
 
 sum over diagonal and offdiagdiagonal of C(T)*S*C for irrep
                     4
  2.220446049250313E-016 -1.234420077549266E-015
 reorthoganalization of MOs is carried out
 sum over diagonal and offdiagdiagonal of C(T)*S*C for irrep
                     4
  0.000000000000000E+000  6.888198982014059E-017
  processed                  28758  ao basis integrals from 
                    48  buffers.
  processed                  39066  ao basis integrals from 
                    66  buffers.
  processed                  67912  ao basis integrals from 
                   114  buffers.
      15          -106.632677701853396              0.1667813361D-05
   current occupation vector 
     4  1  1  0
     4  1  0  0
  processed                  28758  ao basis integrals from 
                    48  buffers.
  processed                  39066  ao basis integrals from 
                    66  buffers.
  processed                  67912  ao basis integrals from 
                   114  buffers.
      16          -106.632677701854476              0.3175293322D-06
   current occupation vector 
     4  1  1  0
     4  1  0  0
  processed                  28758  ao basis integrals from 
                    48  buffers.
  processed                  39066  ao basis integrals from 
                    66  buffers.
  processed                  67912  ao basis integrals from 
                   114  buffers.
      17          -106.632677701854419              0.3357983258D-07
   current occupation vector 
     4  1  1  0
     4  1  0  0
  processed                  28758  ao basis integrals from 
                    48  buffers.
  processed                  39066  ao basis integrals from 
                    66  buffers.
  processed                  67912  ao basis integrals from 
                   114  buffers.
      18          -106.632677701854419              0.1502637235D-07
   current occupation vector 
     4  1  1  0
     4  1  0  0
  processed                  28758  ao basis integrals from 
                    48  buffers.
  processed                  39066  ao basis integrals from 
                    66  buffers.
  processed                  67912  ao basis integrals from 
                   114  buffers.
      19          -106.632677701854647              0.9050028994D-08
   current occupation vector 
     4  1  1  0
     4  1  0  0
 
 sum over diagonal and offdiagdiagonal of C(T)*S*C for irrep
                     1
  1.287858708565182E-013  5.646501411990924E-015
 reorthoganalization of MOs is carried out
 sum over diagonal and offdiagdiagonal of C(T)*S*C for irrep
                     1
  8.881784197001252E-016 -8.353632955413310E-018
 
 sum over diagonal and offdiagdiagonal of C(T)*S*C for irrep
                     2
 -6.661338147750939E-016 -1.755457212979786E-014
 reorthoganalization of MOs is carried out
 sum over diagonal and offdiagdiagonal of C(T)*S*C for irrep
                     2
  9.992007221626409E-016  1.238900931471078E-015
 
 sum over diagonal and offdiagdiagonal of C(T)*S*C for irrep
                     3
  4.773959005888173E-015 -9.905315742050426E-015
 reorthoganalization of MOs is carried out
 sum over diagonal and offdiagdiagonal of C(T)*S*C for irrep
                     3
  2.220446049250313E-016 -5.033622990978728E-016
 
 sum over diagonal and offdiagdiagonal of C(T)*S*C for irrep
                     4
  1.110223024625157E-015 -1.026939780635798E-015
 reorthoganalization of MOs is carried out
 sum over diagonal and offdiagdiagonal of C(T)*S*C for irrep
                     4
 -3.330669073875470E-016 -4.211066648922117E-017
  processed                  28758  ao basis integrals from 
                    48  buffers.
  processed                  39066  ao basis integrals from 
                    66  buffers.
  processed                  67912  ao basis integrals from 
                   114  buffers.
      20          -106.632677701854362              0.1728038294D-08
   current occupation vector 
     4  1  1  0
     4  1  0  0
  processed                  28758  ao basis integrals from 
                    48  buffers.
  processed                  39066  ao basis integrals from 
                    66  buffers.
  processed                  67912  ao basis integrals from 
                   114  buffers.
      21          -106.632677701854448              0.2136308578D-09
   current occupation vector 
     4  1  1  0
     4  1  0  0
  processed                  28758  ao basis integrals from 
                    48  buffers.
  processed                  39066  ao basis integrals from 
                    66  buffers.
  processed                  67912  ao basis integrals from 
                   114  buffers.
      22          -106.632677701854448              0.6165257757D-10
   current occupation vector 
     4  1  1  0
     4  1  0  0
  processed                  28758  ao basis integrals from 
                    48  buffers.
  processed                  39066  ao basis integrals from 
                    66  buffers.
  processed                  67912  ao basis integrals from 
                   114  buffers.
      23          -106.632677701854476              0.1148065020D-10
   current occupation vector 
     4  1  1  0
     4  1  0  0
  processed                  28758  ao basis integrals from 
                    48  buffers.
  processed                  39066  ao basis integrals from 
                    66  buffers.
  processed                  67912  ao basis integrals from 
                   114  buffers.
      24          -106.632677701854277              0.2729565272D-11
   current occupation vector 
     4  1  1  0
     4  1  0  0
 
 sum over diagonal and offdiagdiagonal of C(T)*S*C for irrep
                     1
  7.438494264988549E-014  1.957416890880845E-014
 reorthoganalization of MOs is carried out
 sum over diagonal and offdiagdiagonal of C(T)*S*C for irrep
                     1
 -1.221245327087672E-015  5.739927433266974E-015
 
 sum over diagonal and offdiagdiagonal of C(T)*S*C for irrep
                     2
 -4.218847493575595E-015 -6.618906667532946E-015
 reorthoganalization of MOs is carried out
 sum over diagonal and offdiagdiagonal of C(T)*S*C for irrep
                     2
 -1.665334536937735E-015  2.685381375207014E-016
 
 sum over diagonal and offdiagdiagonal of C(T)*S*C for irrep
                     3
  7.993605777301127E-015 -1.328434432901714E-014
 reorthoganalization of MOs is carried out
 sum over diagonal and offdiagdiagonal of C(T)*S*C for irrep
                     3
 -1.110223024625157E-015 -1.396446647601711E-015
 
 sum over diagonal and offdiagdiagonal of C(T)*S*C for irrep
                     4
 -8.881784197001252E-016  5.767701447738707E-016
 reorthoganalization of MOs is carried out
 sum over diagonal and offdiagdiagonal of C(T)*S*C for irrep
                     4
 -6.661338147750939E-016 -9.938237570134706E-018
  processed                  28758  ao basis integrals from 
                    48  buffers.
  processed                  39066  ao basis integrals from 
                    66  buffers.
  processed                  67912  ao basis integrals from 
                   114  buffers.
      25          -106.632677701854249              0.3481672416D-12
   current occupation vector 
     4  1  1  0
     4  1  0  0
  processed                  28758  ao basis integrals from 
                    48  buffers.
  processed                  39066  ao basis integrals from 
                    66  buffers.
  processed                  67912  ao basis integrals from 
                   114  buffers.
      26          -106.632677701854448              0.1162188835D-12
   current occupation vector 
     4  1  1  0
     4  1  0  0
  processed                  28758  ao basis integrals from 
                    48  buffers.
  processed                  39066  ao basis integrals from 
                    66  buffers.
  processed                  67912  ao basis integrals from 
                   114  buffers.
      27          -106.632677701854561              0.7332155716D-13
   current occupation vector 
     4  1  1  0
     4  1  0  0

  SCF has converged.

 Density matrix saved to file den.dat
 total alpha spin electron number:   5.99999999999999     
 total  beta spin electron number:   4.99999999999998     
  processed                  28758  ao basis integrals from 
                    48  buffers.
  processed                  39066  ao basis integrals from 
                    66  buffers.
  processed                  67912  ao basis integrals from 
                   114  buffers.
     E(ROHF)=      -106.632677701854476              0.8086630324D-14


  Final occupancies:

     Alpha population by irrep:   4    1    1    0
      Beta population by irrep:   4    1    0    0



       The average multiplicity is    2.0000000
  The expectation value of S**2 is    0.7500000

 @PUTMOS-I, Writing converged MOs to NEWMOS. 
 @PUTMOS-I, Symmetry   1 Full Blocks  6 Partial Blocksize   0
 @PUTMOS-I, Symmetry   2 Full Blocks  2 Partial Blocksize   3
 @PUTMOS-I, Symmetry   3 Full Blocks  2 Partial Blocksize   3
 @PUTMOS-I, Symmetry   4 Full Blocks  1 Partial Blocksize   0
  @DMPJOB-I, Rotating orbitals to semicanonical basis.
             *** Eigenvalues correspond to new basis. ***

--------------------------------------------------------------------------------
Eigenvalue    -26.721732     -2.765036     -1.988531     -1.151818     -1.065032
 Symmetry         SG+           SG+           SG+           SG            SG+    
--------------------------------------------------------------------------------
   1 S         0.0000031     0.2410588     0.0182617     0.0000000     0.0211765
   1 S         0.0000754     0.6538103     0.0566815     0.0000000     0.0750732
   1 S         0.0000626     0.2179680     0.0167535     0.0000000     0.0272011
   1 S         0.0007403     0.0063415    -0.0017333     0.0000000    -0.0131760
   1 S        -0.0000768    -0.0021085     0.0004463     0.0000000     0.0038293
   1 PX        0.0000000     0.0000000     0.0000000     0.0000000     0.0000000
   1 PY        0.0000000     0.0000000     0.0000000     0.0160485     0.0000000
   1 PZ       -0.0001422     0.0004944     0.0149209     0.0000000     0.0525757
   1 PX        0.0000000     0.0000000     0.0000000     0.0000000     0.0000000
   1 PY        0.0000000     0.0000000     0.0000000     0.0034518     0.0000000
   1 PZ       -0.0005007     0.0001168    -0.0005936     0.0000000     0.0018172
   1 PX        0.0000000     0.0000000     0.0000000     0.0000000     0.0000000
   1 PY        0.0000000     0.0000000     0.0000000     0.0014176     0.0000000
   1 PZ        0.0000036     0.0002102     0.0026635     0.0000000     0.0072260
   1 DX2      -0.0000503    -0.0000166     0.0002732     0.0000000     0.0019473
   1 DXY       0.0000000     0.0000000     0.0000000     0.0000000     0.0000000
   1 DXZ       0.0000000     0.0000000     0.0000000     0.0000000     0.0000000
   1 DY2      -0.0000500     0.0000012     0.0010527     0.0000000     0.0014823
   1 DYZ       0.0000000     0.0000000     0.0000000    -0.0070930     0.0000000
   1 DZZ       0.0001003     0.0000154    -0.0013260     0.0000000    -0.0034296
   2 S        -0.4256773    -0.0040025     0.1067927     0.0000000    -0.0068758
   2 S        -0.6511650    -0.0098212     0.2661668     0.0000000    -0.0177735
   2 S        -0.0227265     0.0127320    -0.3775409     0.0000000     0.0330635
   2 S         0.0070764     0.0203041    -0.5535355     0.0000000     0.0343960
   2 S        -0.0037417     0.0053727    -0.1977153     0.0000000     0.0072787
   2 PX        0.0000000     0.0000000     0.0000000     0.0000000     0.0000000
   2 PY        0.0000000     0.0000000     0.0000000     0.5315020     0.0000000
   2 PZ       -0.0003878     0.0092112    -0.0156901     0.0000000    -0.5102202
   2 PX        0.0000000     0.0000000     0.0000000     0.0000000     0.0000000
   2 PY        0.0000000     0.0000000     0.0000000     0.4618168     0.0000000
   2 PZ        0.0002491     0.0091765    -0.0263006     0.0000000    -0.4512406
   2 PX        0.0000000     0.0000000     0.0000000     0.0000000     0.0000000
   2 PY        0.0000000     0.0000000     0.0000000     0.1882605     0.0000000
   2 PZ       -0.0004088     0.0020264    -0.0090019     0.0000000    -0.2156340
   2 DX2      -0.0000481    -0.0000955    -0.0001309     0.0000000     0.0002698
   2 DXY       0.0000000     0.0000000     0.0000000     0.0000000     0.0000000
   2 DXZ       0.0000000     0.0000000     0.0000000     0.0000000     0.0000000
   2 DY2       0.0000929    -0.0001281     0.0002244     0.0000000     0.0003041
   2 DYZ       0.0000000     0.0000000     0.0000000     0.0006067     0.0000000
   2 DZZ      -0.0000448     0.0002236    -0.0000935     0.0000000    -0.0005739
   2 DX2      -0.0000353    -0.0006140     0.0010715     0.0000000     0.0049609
   2 DXY       0.0000000     0.0000000     0.0000000     0.0000000     0.0000000
   2 DXZ       0.0000000     0.0000000     0.0000000     0.0000000     0.0000000
   2 DY2       0.0001229    -0.0007392     0.0029739     0.0000000     0.0049759
   2 DYZ       0.0000000     0.0000000     0.0000000     0.0154382     0.0000000
   2 DZZ      -0.0000876     0.0013532    -0.0040454     0.0000000    -0.0099368
   2 FX3       0.0000000     0.0000000     0.0000000     0.0000000     0.0000000
   2 FX2Y      0.0000000     0.0000000     0.0000000    -0.0031861     0.0000000
   2 FX2Z      0.0000037    -0.0001872     0.0002611     0.0000000     0.0010864
   2 FXY2      0.0000000     0.0000000     0.0000000     0.0000000     0.0000000
   2 FXYZ      0.0000000     0.0000000     0.0000000     0.0000000     0.0000000
   2 FXZ2      0.0000000     0.0000000     0.0000000     0.0000000     0.0000000
   2 FY3       0.0000000     0.0000000     0.0000000     0.0017423     0.0000000
   2 FY2Z      0.0000077    -0.0001504     0.0002219     0.0000000    -0.0012337
   2 FYZ2      0.0000000     0.0000000     0.0000000    -0.0020407     0.0000000
   2 FZ3      -0.0000038     0.0001125    -0.0001610     0.0000000     0.0000491
--------------------------------------------------------------------------------
Eigenvalue     -1.046000     -0.175937     -0.108186     -0.103199     -0.070472
 Symmetry         SG            SG+           SG            SG            SG+    
--------------------------------------------------------------------------------
   1 S         0.0000000     0.0313675     0.0000000     0.0000000     0.0085957
   1 S         0.0000000     0.1071168     0.0000000     0.0000000     0.0282596
   1 S         0.0000000     0.1192792     0.0000000     0.0000000     0.0329227
   1 S         0.0000000    -0.4433672     0.0000000     0.0000000    -0.5151885
   1 S         0.0000000    -0.6563518     0.0000000     0.0000000     0.8514835
   1 PX        0.0216681     0.0000000     0.0000000     0.1239252     0.0000000
   1 PY        0.0000000     0.0000000     0.1256132     0.0000000     0.0000000
   1 PZ        0.0000000    -0.0524391     0.0000000     0.0000000    -0.0665397
   1 PX        0.0084596     0.0000000     0.0000000     0.9804309     0.0000000
   1 PY        0.0000000     0.0000000     0.9771402     0.0000000     0.0000000
   1 PZ        0.0000000    -0.2012954     0.0000000     0.0000000    -1.0231735
   1 PX        0.0017391     0.0000000     0.0000000     0.0103293     0.0000000
   1 PY        0.0000000     0.0000000     0.0103774     0.0000000     0.0000000
   1 PZ        0.0000000    -0.0046117     0.0000000     0.0000000    -0.0071403
   1 DX2       0.0000000     0.0023236     0.0000000     0.0000000     0.0067522
   1 DXY       0.0000000     0.0000000     0.0000000     0.0000000     0.0000000
   1 DXZ      -0.0102438     0.0000000     0.0000000     0.0212229     0.0000000
   1 DY2       0.0000000    -0.0040195     0.0000000     0.0000000     0.0153308
   1 DYZ       0.0000000     0.0000000     0.0068663     0.0000000     0.0000000
   1 DZZ       0.0000000     0.0016960     0.0000000     0.0000000    -0.0220829
   2 S         0.0000000    -0.0080877     0.0000000     0.0000000     0.0163355
   2 S         0.0000000    -0.0210448     0.0000000     0.0000000     0.0434360
   2 S         0.0000000     0.0376225     0.0000000     0.0000000    -0.0892080
   2 S         0.0000000     0.0412259     0.0000000     0.0000000    -0.0313266
   2 S         0.0000000     0.1249054     0.0000000     0.0000000    -0.3835282
   2 PX        0.5143515     0.0000000     0.0000000    -0.0822022     0.0000000
   2 PY        0.0000000     0.0000000    -0.0783998     0.0000000     0.0000000
   2 PZ        0.0000000     0.0205446     0.0000000     0.0000000    -0.0002075
   2 PX        0.4492056     0.0000000     0.0000000    -0.0628235     0.0000000
   2 PY        0.0000000     0.0000000    -0.0613747     0.0000000     0.0000000
   2 PZ        0.0000000     0.0207785     0.0000000     0.0000000    -0.0176583
   2 PX        0.2242801     0.0000000     0.0000000    -0.1032733     0.0000000
   2 PY        0.0000000     0.0000000    -0.0875350     0.0000000     0.0000000
   2 PZ        0.0000000     0.0284856     0.0000000     0.0000000     0.0351381
   2 DX2       0.0000000    -0.0003106     0.0000000     0.0000000     0.0003772
   2 DXY       0.0000000     0.0000000     0.0000000     0.0000000     0.0000000
   2 DXZ       0.0004615     0.0000000     0.0000000     0.0008388     0.0000000
   2 DY2       0.0000000     0.0002410     0.0000000     0.0000000    -0.0007676
   2 DYZ       0.0000000     0.0000000     0.0008613     0.0000000     0.0000000
   2 DZZ       0.0000000     0.0000696     0.0000000     0.0000000     0.0003904
   2 DX2       0.0000000    -0.0007621     0.0000000     0.0000000     0.0014599
   2 DXY       0.0000000     0.0000000     0.0000000     0.0000000     0.0000000
   2 DXZ       0.0156846     0.0000000     0.0000000     0.0060367     0.0000000
   2 DY2       0.0000000    -0.0006270     0.0000000     0.0000000     0.0012528
   2 DYZ       0.0000000     0.0000000     0.0069724     0.0000000     0.0000000
   2 DZZ       0.0000000     0.0013890     0.0000000     0.0000000    -0.0027127
   2 FX3      -0.0006957     0.0000000     0.0000000     0.0001047     0.0000000
   2 FX2Y      0.0000000     0.0000000     0.0003087     0.0000000     0.0000000
   2 FX2Z      0.0000000    -0.0001113     0.0000000     0.0000000     0.0002022
   2 FXY2      0.0016328     0.0000000     0.0000000    -0.0004948     0.0000000
   2 FXYZ      0.0000000     0.0000000     0.0000000     0.0000000     0.0000000
   2 FXZ2      0.0004543     0.0000000     0.0000000     0.0001805     0.0000000
   2 FY3       0.0000000     0.0000000    -0.0002452     0.0000000     0.0000000
   2 FY2Z      0.0000000     0.0000323     0.0000000     0.0000000     0.0001686
   2 FYZ2      0.0000000     0.0000000     0.0004270     0.0000000     0.0000000
   2 FZ3       0.0000000     0.0000263     0.0000000     0.0000000    -0.0001236
--------------------------------------------------------------------------------
Eigenvalue     -0.004999      0.152830      0.152845      0.166603      0.186989
 Symmetry         SG+           SG            SG+           SG+           SG     
--------------------------------------------------------------------------------
   1 S         0.0378308     0.0000000     0.0005119     0.0026951     0.0000000
   1 S         0.1115711     0.0000000     0.0029402     0.0037298     0.0000000
   1 S         0.2346795     0.0000000     0.0001571    -0.0030984     0.0000000
   1 S        -2.2945488     0.0000000    -0.0571485     0.8985526     0.0000000
   1 S         1.6937506     0.0000000     0.0149740    -0.1383654     0.0000000
   1 PX        0.0000000     0.0000000     0.0000000     0.0000000     0.0000000
   1 PY        0.0000000     0.0000000     0.0000000     0.0000000     0.0607670
   1 PZ        0.0094888     0.0000000     0.0014216     0.0256266     0.0000000
   1 PX        0.0000000     0.0000000     0.0000000     0.0000000     0.0000000
   1 PY        0.0000000     0.0000000     0.0000000     0.0000000    -0.1992899
   1 PZ        0.5876486     0.0000000     0.0394508    -0.8079100     0.0000000
   1 PX        0.0000000     0.0000000     0.0000000     0.0000000     0.0000000
   1 PY        0.0000000     0.0000000     0.0000000     0.0000000     0.0023355
   1 PZ       -0.0034528     0.0000000    -0.0003865     0.0124795     0.0000000
   1 DX2       0.0167393     0.0000000    -0.4886789    -0.3906048     0.0000000
   1 DXY       0.0000000     0.9983206     0.0000000     0.0000000     0.0000000
   1 DXZ       0.0000000     0.0000000     0.0000000     0.0000000     0.0000000
   1 DY2       0.0042209     0.0000000     0.5091012    -0.3631448     0.0000000
   1 DYZ       0.0000000     0.0000000     0.0000000     0.0000000     1.1565499
   1 DZZ      -0.0209602     0.0000000    -0.0204223     0.7537496     0.0000000
   2 S        -0.0117254     0.0000000    -0.0004252     0.0070210     0.0000000
   2 S        -0.0323352     0.0000000    -0.0013625     0.0226519     0.0000000
   2 S         0.0815417     0.0000000     0.0058182    -0.1019445     0.0000000
   2 S        -0.0603675     0.0000000    -0.0169708     0.2930781     0.0000000
   2 S         0.5770153     0.0000000     0.0671260    -1.5485539     0.0000000
   2 PX        0.0000000     0.0000000     0.0000000     0.0000000     0.0000000
   2 PY        0.0000000     0.0000000     0.0000000     0.0000000     0.1202441
   2 PZ        0.0496779     0.0000000    -0.0030940     0.1044235     0.0000000
   2 PX        0.0000000     0.0000000     0.0000000     0.0000000     0.0000000
   2 PY        0.0000000     0.0000000     0.0000000     0.0000000     0.1202900
   2 PZ        0.0306747     0.0000000    -0.0067267     0.1608827     0.0000000
   2 PX        0.0000000     0.0000000     0.0000000     0.0000000     0.0000000
   2 PY        0.0000000     0.0000000     0.0000000     0.0000000     0.2895707
   2 PZ        0.2083212     0.0000000     0.0214546    -0.4196035     0.0000000
   2 DX2       0.0000227     0.0000000    -0.0011795     0.0001578     0.0000000
   2 DXY       0.0000000     0.0023703     0.0000000     0.0000000     0.0000000
   2 DXZ       0.0000000     0.0000000     0.0000000     0.0000000     0.0000000
   2 DY2       0.0008221     0.0000000     0.0012251    -0.0002897     0.0000000
   2 DYZ       0.0000000     0.0000000     0.0000000     0.0000000    -0.0049879
   2 DZZ      -0.0008448     0.0000000    -0.0000456     0.0001319     0.0000000
   2 DX2      -0.0030236     0.0000000    -0.0076813     0.0023833     0.0000000
   2 DXY       0.0000000     0.0155844     0.0000000     0.0000000     0.0000000
   2 DXZ       0.0000000     0.0000000     0.0000000     0.0000000     0.0000000
   2 DY2      -0.0029169     0.0000000     0.0079963     0.0034722     0.0000000
   2 DYZ       0.0000000     0.0000000     0.0000000     0.0000000     0.0054712
   2 DZZ       0.0059405     0.0000000    -0.0003150    -0.0058554     0.0000000
   2 FX3       0.0000000     0.0000000     0.0000000     0.0000000     0.0000000
   2 FX2Y      0.0000000     0.0000000     0.0000000     0.0000000    -0.0005221
   2 FX2Z     -0.0004133     0.0000000    -0.0004171    -0.0003225     0.0000000
   2 FXY2      0.0000000     0.0000000     0.0000000     0.0000000     0.0000000
   2 FXYZ      0.0000000     0.0008834     0.0000000     0.0000000     0.0000000
   2 FXZ2      0.0000000     0.0000000     0.0000000     0.0000000     0.0000000
   2 FY3       0.0000000     0.0000000     0.0000000     0.0000000     0.0002362
   2 FY2Z     -0.0000970     0.0000000     0.0004455     0.0004416     0.0000000
   2 FYZ2      0.0000000     0.0000000     0.0000000     0.0000000    -0.0001866
   2 FZ3       0.0001701     0.0000000    -0.0000095    -0.0000397     0.0000000
--------------------------------------------------------------------------------
Eigenvalue      0.196008      0.370430      0.377809      0.503009      0.567433
 Symmetry         SG            SG            SG            SG+           SG+    
--------------------------------------------------------------------------------
   1 S         0.0000000     0.0000000     0.0000000     0.0003966     0.0207304
   1 S         0.0000000     0.0000000     0.0000000     0.0152473     0.0381029
   1 S         0.0000000     0.0000000     0.0000000    -0.0202137     0.2580075
   1 S         0.0000000     0.0000000     0.0000000     0.2532963     0.4564843
   1 S         0.0000000     0.0000000     0.0000000    -0.3675724    -0.3810006
   1 PX        0.0719304     0.0000000     0.9751867     0.0000000     0.0000000
   1 PY        0.0000000     0.9580586     0.0000000     0.0000000     0.0000000
   1 PZ        0.0000000     0.0000000     0.0000000    -0.8487717    -0.0462839
   1 PX       -0.2431337     0.0000000    -0.5947275     0.0000000     0.0000000
   1 PY        0.0000000    -0.6227562     0.0000000     0.0000000     0.0000000
   1 PZ        0.0000000     0.0000000     0.0000000     0.6162766     0.2464631
   1 PX        0.0026985     0.0000000     0.0336178     0.0000000     0.0000000
   1 PY        0.0000000     0.0329913     0.0000000     0.0000000     0.0000000
   1 PZ        0.0000000     0.0000000     0.0000000    -0.0315728     0.0160793
   1 DX2       0.0000000     0.0000000     0.0000000    -0.0117761     0.1835575
   1 DXY       0.0000000     0.0000000     0.0000000     0.0000000     0.0000000
   1 DXZ       1.1777881     0.0000000     0.0429466     0.0000000     0.0000000
   1 DY2       0.0000000     0.0000000     0.0000000    -0.0132089     0.1876571
   1 DYZ       0.0000000     0.1030542     0.0000000     0.0000000     0.0000000
   1 DZZ       0.0000000     0.0000000     0.0000000     0.0249850    -0.3712146
   2 S         0.0000000     0.0000000     0.0000000     0.0427750    -0.0073782
   2 S         0.0000000     0.0000000     0.0000000     0.0970683    -0.0164746
   2 S         0.0000000     0.0000000     0.0000000     0.0249134    -0.0147472
   2 S         0.0000000     0.0000000     0.0000000    -1.2729768     0.2756811
   2 S         0.0000000     0.0000000     0.0000000     1.4077906     0.0548475
   2 PX        0.1195950     0.0000000    -0.1051522     0.0000000     0.0000000
   2 PY        0.0000000    -0.1057379     0.0000000     0.0000000     0.0000000
   2 PZ        0.0000000     0.0000000     0.0000000    -0.0433257     0.2559453
   2 PX        0.1103897     0.0000000    -0.2087216     0.0000000     0.0000000
   2 PY        0.0000000    -0.2199572     0.0000000     0.0000000     0.0000000
   2 PZ        0.0000000     0.0000000     0.0000000     0.0471754     0.6954514
   2 PX        0.3525594     0.0000000     0.3992629     0.0000000     0.0000000
   2 PY        0.0000000     0.4814993     0.0000000     0.0000000     0.0000000
   2 PZ        0.0000000     0.0000000     0.0000000    -0.5113343    -1.5235347
[...]
  W(mnij) AA contribution =  0.0036688832 a.u.
  W(mnij) BB contribution =  0.0017336324 a.u.
  W(mnij) AB contribution =  0.0317842027 a.u.
  W(abef) AA contribution =  0.0038545269 a.u.
  W(abef) BB contribution =  0.0018465467 a.u.
  W(abef) AB contribution =  0.0348569667 a.u.
  W(mbej) AA contribution =  -0.0073776609 a.u.
  W(mbej) BB contribution =  -0.0034226950 a.u.
  W(mbej) AB contribution = -0.0933669712 a.u.
   After  17 iterations, amplitude changes are:
    -------------------------------------------------------------------
                 Spin      RMS          Max.      Max. change for
     Amplitude   Case     Change       Change       i    j    a    b
    -------------------------------------------------------------------
        T1        AA    0.0000000000 0.0000000022    4        26
        T1        BB    0.0000000000-0.0000000008    3         5
        T2        AA    0.0000000000 0.0000000002    5    4   39   26
        T2        BB    0.0000000000-0.0000000002    4    3   28   11
        T2        AB    0.0000000000 0.0000000027    5    4   26   35
    -------------------------------------------------------------------
   The AA contribution to the correlation energy is:   -0.0335563 a.u.
   The BB contribution to the correlation energy is:   -0.0166349 a.u.
   The AB contribution to the correlation energy is:   -0.1984070 a.u.
   The total correlation energy is -0.248598249787 a.u.
   The total correlation energy is -0.248598249787 a.u.
  Current DIIS expansion coefficients : 
 [   1]-0.0927264996 [   2] 1.2225785541 [   3] 0.0055349932 [   4] 0.0345386031
 [   5]-0.1699256508
  Convergence information after    17 iterations: 
  Largest element of residual vector :  0.26739001E-08.
  Largest element of DIIS residual   :  0.18648543E-08.
  W(mnij) AA contribution =  0.0036688832 a.u.
  W(mnij) BB contribution =  0.0017336323 a.u.
  W(mnij) AB contribution =  0.0317842030 a.u.
  W(abef) AA contribution =  0.0038545269 a.u.
  W(abef) BB contribution =  0.0018465466 a.u.
  W(abef) AB contribution =  0.0348569669 a.u.
  W(mbej) AA contribution =  -0.0073776608 a.u.
  W(mbej) BB contribution =  -0.0034226949 a.u.
  W(mbej) AB contribution = -0.0933669721 a.u.
   After  18 iterations, amplitude changes are:
    -------------------------------------------------------------------
                 Spin      RMS          Max.      Max. change for
     Amplitude   Case     Change       Change       i    j    a    b
    -------------------------------------------------------------------
        T1        AA    0.0000000000 0.0000000006    4        26
        T1        BB    0.0000000000 0.0000000004    4        25
        T2        AA    0.0000000000 0.0000000000    5    2   47   26
        T2        BB    0.0000000000 0.0000000000    4    3   28   11
        T2        AB    0.0000000000 0.0000000011    5    4   26   35
    -------------------------------------------------------------------
   The AA contribution to the correlation energy is:   -0.0335563 a.u.
   The BB contribution to the correlation energy is:   -0.0166349 a.u.
   The AB contribution to the correlation energy is:   -0.1984070 a.u.
   The total correlation energy is -0.248598249861 a.u.
   The total correlation energy is -0.248598249861 a.u.
  Current DIIS expansion coefficients : 
 [   1]-0.0564636982 [   2]-0.0807791122 [   3] 1.1410652318 [   4] 0.0124779826
 [   5]-0.0163004041
  Convergence information after    18 iterations: 
  Largest element of residual vector :  0.11210572E-08.
  Largest element of DIIS residual   :  0.88975088E-09.
  W(mnij) AA contribution =  0.0036688832 a.u.
  W(mnij) BB contribution =  0.0017336323 a.u.
  W(mnij) AB contribution =  0.0317842030 a.u.
  W(abef) AA contribution =  0.0038545269 a.u.
  W(abef) BB contribution =  0.0018465466 a.u.
  W(abef) AB contribution =  0.0348569669 a.u.
  W(mbej) AA contribution =  -0.0073776608 a.u.
  W(mbej) BB contribution =  -0.0034226949 a.u.
  W(mbej) AB contribution = -0.0933669721 a.u.
   After  19 iterations, amplitude changes are:
    -------------------------------------------------------------------
                 Spin      RMS          Max.      Max. change for
     Amplitude   Case     Change       Change       i    j    a    b
    -------------------------------------------------------------------
        T1        AA    0.0000000000-0.0000000002    3        10
        T1        BB    0.0000000000 0.0000000002    4        25
        T2        AA    0.0000000000 0.0000000000    5    2   47   26
        T2        BB    0.0000000000 0.0000000000    4    3   25   11
        T2        AB    0.0000000000 0.0000000005    5    4   26   35
    -------------------------------------------------------------------
   The AA contribution to the correlation energy is:   -0.0335563 a.u.
   The BB contribution to the correlation energy is:   -0.0166349 a.u.
   The AB contribution to the correlation energy is:   -0.1984070 a.u.
   The total correlation energy is -0.248598249861 a.u.
   The total correlation energy is -0.248598249861 a.u.
  Current DIIS expansion coefficients : 
 [   1] 0.0295425656 [   2]-0.0714676479 [   3]-0.1936577342 [   4] 1.2386710703
 [   5]-0.0030882538
  Convergence information after    19 iterations: 
  Largest element of residual vector :  0.53006931E-09.
  Largest element of DIIS residual   :  0.36274564E-09.
  Amplitude equations converged in    19iterations.
   The AA contribution to the correlation energy is:   -0.0335563 a.u.
   The BB contribution to the correlation energy is:   -0.0166349 a.u.
   The AB contribution to the correlation energy is:   -0.1984070 a.u.
   The total correlation energy is -0.248598249859 a.u.
   The total correlation energy is -0.248598249859 a.u.
   The CC iterations have converged.

            ----------------------------------------------
                     Projected spin multiplicities: 
            ----------------------------------------------
             <0|S^2|0>                  =    0.7500000000.
             <0|S^2 (T2+T1**2) |0>      =    0.0000000000.
             <0|S^2 T1|0>               =    0.0000000000.
             Projected <0|S^2 exp(T)|0> =    0.7500000000.
             Approximate spin mult.     =    2.0000000000.
            ----------------------------------------------
   Largest T1 amplitudes for spin case AA:
   i       a                 i       a                 i       a    
-----------------------------------------------------------------------------
[  2      15    ] 0.01628 [  2      16    ] 0.00700 [  2      11    ] 0.00576
[  5      36    ] 0.00573 [  2      22    ]-0.00567 [  2      14    ]-0.00565
[  4      31    ]-0.00483 [  3      17    ] 0.00467 [  5      37    ]-0.00410
[  4      33    ] 0.00382 [  3      20    ] 0.00369 [  2      18    ] 0.00362
[  5      41    ]-0.00311 [  5      39    ]-0.00304 [  5      38    ] 0.00297
-----------------------------------------------------------------------------
   Norm of T1AA vector (       80 symmetry allowed elements):  0.0247114096.
-----------------------------------------------------------------------------
   Largest T2 amplitudes for spin case AA:
   i   j   a   b             i   j   a   b             i   j   a   b
-----------------------------------------------------------------------------
[  5   4  47  15] 0.01771 [  4   3  29  12] 0.01270 [  4   3  30  16]-0.01224
[  5   3  39  12] 0.01213 [  5   3  40  16]-0.01118 [  5   4  39  29]-0.01108
[  5   4  41  31]-0.01085 [  5   3  41  17] 0.01057 [  4   3  31  17] 0.01022
[  5   3  41  12]-0.00943 [  4   3  31  12]-0.00902 [  5   3  47  30] 0.00895
[  5   4  40  30]-0.00888 [  4   3  30  15] 0.00858 [  5   3  40  15]-0.00853
-----------------------------------------------------------------------------
   Norm of T2AA vector (     2478 symmetry allowed elements):  0.0692461381.
-----------------------------------------------------------------------------
   Largest T1 amplitudes for spin case BB:
   i       a                 i       a                 i       a    
-----------------------------------------------------------------------------
[  2      14    ]-0.01252 [  4      25    ] 0.01193 [  3      11    ] 0.01139
[  2      10    ]-0.01075 [  4      28    ]-0.00978 [  4      26    ]-0.00900
[  3       9    ] 0.00891 [  4      27    ] 0.00749 [  2      15    ]-0.00643
[  2       6    ]-0.00595 [  3       7    ] 0.00457 [  2      21    ] 0.00419
[  2       7    ] 0.00414 [  2      13    ] 0.00402 [  2       5    ] 0.00315
-----------------------------------------------------------------------------
   Norm of T1BB vector (       70 symmetry allowed elements):  0.0330136681.
-----------------------------------------------------------------------------
   Largest T2 amplitudes for spin case BB:
   i   j   a   b             i   j   a   b             i   j   a   b
-----------------------------------------------------------------------------
[  4   3  28  11] 0.01316 [  4   2  47  35]-0.01231 [  3   2  40  35] 0.01179
[  4   3  29  15]-0.01157 [  4   3  30  16] 0.00979 [  4   3  29  14] 0.00913
[  4   3  47  40] 0.00891 [  4   3  30  11]-0.00883 [  4   3  29  13] 0.00847
[  4   3  28  16]-0.00763 [  4   3  26  11] 0.00697 [  3   2  11  10] 0.00637
[  4   3  25  11]-0.00617 [  4   2  30  17] 0.00613 [  3   2  17  16] 0.00605
-----------------------------------------------------------------------------
   Norm of T2BB vector (     1620 symmetry allowed elements):  0.0489410035.
-----------------------------------------------------------------------------
   Largest T2 amplitudes for spin case AB:
       _       _                 _       _                 _       _
   i   j   a   b             i   j   a   b             i   j   a   b
-----------------------------------------------------------------------------
[  3   3  12  11]-0.02507 [  5   2  15  35]-0.02465 [  4   2  47  35]-0.02432
[  3   2  40  35] 0.02358 [  1   1  14  13]-0.02169 [  4   4  29  28]-0.02151
[  4   4  31  30]-0.01895 [  3   3  17  16]-0.01815 [  4   4  47  47]-0.01707
[  4   4  15  14]-0.01694 [  1   1  32  31]-0.01692 [  1   1  42  42]-0.01691
[  3   4  12  28] 0.01645 [  4   3  29  11] 0.01634 [  4   4  30  29]-0.01628
-----------------------------------------------------------------------------
   Norm of T2AB vector (    11034 symmetry allowed elements):  0.1776978942.
-----------------------------------------------------------------------------
       Summary of iterative solution of CC equations 
      -----------------------------------------------------------
                       Correlation           Total
       Iteration         Energy              Energy
      -----------------------------------------------------------
            0        -0.232491484897    -106.865169186751  DIIS 
            1        -0.244998679101    -106.877676380956  DIIS 
            2        -0.247774270494    -106.880451972348  DIIS 
            3        -0.248363940450    -106.881041642304  DIIS 
            4        -0.248571441563    -106.881249143417  DIIS 
            5        -0.248592358276    -106.881270060131  DIIS 
            6        -0.248595482423    -106.881273184277  DIIS 
            7        -0.248597474476    -106.881275176331  DIIS 
            8        -0.248597740522    -106.881275442377  DIIS 
            9        -0.248598096665    -106.881275798520  DIIS 
           10        -0.248598185097    -106.881275886951  DIIS 
           11        -0.248598229530    -106.881275931385  DIIS 
           12        -0.248598240348    -106.881275942203  DIIS 
           13        -0.248598244264    -106.881275946119  DIIS 
           14        -0.248598247256    -106.881275949110  DIIS 
           15        -0.248598248681    -106.881275950536  DIIS 
           16        -0.248598249490    -106.881275951344  DIIS 
           17        -0.248598249787    -106.881275951641  DIIS 
           18        -0.248598249861    -106.881275951715  DIIS 
           19        -0.248598249859    -106.881275951714  DIIS 
      -----------------------------------------------------------
      A miracle has come to pass. The CC iterations have converged.
 @DIMT3-I, Dimensions of T3 amplitudes : 
               # abc          # ijk       Symmetry    Spin 
                     3460              1     1          1
                     3330              3     2          1
                     3330              3     3          1
                     3124              3     4          1
                    11480             12     1          2
                    10600             12     2          2
                    10706             10     3          2
                     9784              6     4          2
                    11720             12     1          3
                    10780             12     2          3
                    11036              3     3          3
                    10024              3     4          3
                     3700              1     1          4
                     3510              3     2          4
                     3616              0     3          4
                     3364              0     4          4
 @DIMT3-I, Dimensions of T3 amplitudes : 
               # abc          # ijk       Symmetry    Spin 
                     3460              1     1          1
                     3330              3     2          1
                     3330              3     3          1
                     3124              3     4          1
                    11480             12     1          2
                    10600             12     2          2
                    10706             10     3          2
                     9784              6     4          2
                    11720             12     1          3
                    10780             12     2          3
                    11036              3     3          3
                    10024              3     4          3
                     3700              1     1          4
                     3510              3     2          4
                     3616              0     3          4
                     3364              0     4          4
 @TRPS-I, Welcome to TRPS. Watch your RUs ! 
 @TRPS-I, Method is CCSD(T) 
 @TRPS-I, Calculation type is energy 
 @TRPS-I, Reference function information : 
          Reference function is general non-HF 
 @TRPS-I, Reference function is ROHF 
 @TRPS-I, INT1 is true 
 @TRPS-I, INT2 is false 
 @TRPS-I, Lengths of ijka integrals. #1        596
                                     #2        360
                                     #3       1124
                                     #4       1338
                                    Max       1338
 @INITRP-I, Initializing W intermediate lists. 
 @TSPABCI-I, AbIc/AbcI record transposition. 
 @TSPABCI-I, (O,v) ---> (v,O) transposition. 
 @TSPABCI-I, In-core algorithm is being used. 
 @TSPABCI-I, In-core algorithm is being used. 
 @TSPABCI-I, In-core algorithm is being used. 
 @TSPABCI-I, In-core algorithm is being used. 
 @TRPS-I, Available memory in integer words    249959040
          Number of pre-allocated words for TRPS14         4137
          Number of free words for TRPS14    249954903
 @TRPS14-I, Spin case AAA 
 @TRPS14-I, Number of free integer words  249954903
            Number of free double words   249954903
            Ratio                                 1
 @TRPS14-I, E4TAAA      -0.000130314420
 @TRPS14-I, E5ST A    0.000003048929072
 @TRPS14-I, E4ST A   -0.000002182417779
 @TRPS-I, Available memory in integer words    249959040
          Number of pre-allocated words for TRPS14         4133
          Number of free words for TRPS14    249954907
 @TRPS14-I, Spin case BBB 
 @TRPS14-I, Number of free integer words  249954907
            Number of free double words   249954907
            Ratio                                 1
 @TRPS14-I, E4TBBB      -0.000028416423
 @TRPS14-I, E5ST B    0.000002630730376
 @TRPS14-I, E4ST B    0.000000823914439
 @SETOOOV-I, Some OOOV lists are being transposed. 
 @TRPS-I, Available memory in integer words    249959040
          Number of pre-allocated words for TRPS2        14952
          Number of free words for TRPS2    249944088
 @TRPS2-I, Spin case AAB 
 @TRPS2-I, Number of free integer words  249944088
           Number of free double  words  249944088
           Ratio                                 1
 @TRPS2-I, E4TBAA      -0.002083288697
 @TRPS2-I, E5ST A    0.000017521798721
 @TRPS2-I, E5ST B    0.000035298753805
 @TRPS2-I, E4ST A   -0.000017925749191
 @TRPS2-I, E4ST B    0.000004306729596
 @SETOOOV-I, Some OOOV lists are being transposed. 
 @TSPABCI2-I, (Alpha,Beta) ---> (Beta,Alpha). 
 @TSPABCI2-I, In-core algorithm is being used. 
 @TSPABCI2-I, In-core algorithm is being used. 
 @TSPABCI2-I, In-core algorithm is being used. 
 @TSPABCI2-I, In-core algorithm is being used. 
 @TSPABCI2-I, In-core algorithm is being used. 
 @TSPABCI2-I, In-core algorithm is being used. 
 @TSPABCI2-I, In-core algorithm is being used. 
 @TSPABCI2-I, In-core algorithm is being used. 
 @AT2IAB-I, Some AbIj lists are being altered. 
 @TRPS-I, Available memory in integer words    249959040
          Number of pre-allocated words for TRPS3        31104
          Number of free words for TRPS3    249927936
 @TRPS3-I, Spin case BBA 
 @TRPS3-I, Number of free integer words  249927936
           Number of free double  words  249927936
           Ratio                                 1
 @TRPS3-I, E4TBBA      -0.001345509366
 @TRPS3-I, E5ST A    0.000021890030000
 @TRPS3-I, E5ST B    0.000083108428037
 @TRPS3-I, E4ST A   -0.000020688206567
 @TRPS3-I, E4ST B    0.000017910770566
 @TSPABCI2-I, (Beta,Alpha) ---> (Alpha,Beta). 
 @TSPABCI2-I, In-core algorithm is being used. 
 @TSPABCI2-I, In-core algorithm is being used. 
 @TSPABCI2-I, In-core algorithm is being used. 
 @TSPABCI2-I, In-core algorithm is being used. 
 @TSPABCI2-I, In-core algorithm is being used. 
 @TSPABCI2-I, In-core algorithm is being used. 
 @TSPABCI2-I, In-core algorithm is being used. 
 @TSPABCI2-I, In-core algorithm is being used. 
 @AT2IAB-I, Some AbIj lists are being altered. 
 @TSPABCI-I, AbIc/AbcI record transposition. 
 @TSPABCI-I, (v,O) ---> (O,v) transposition. 
 @TSPABCI-I, In-core algorithm is being used. 
 @TSPABCI-I, In-core algorithm is being used. 
 @TSPABCI-I, In-core algorithm is being used. 
 @TSPABCI-I, In-core algorithm is being used. 
 @CCENRG-I, CCSD/QCISD energy will now be evaluated. 
 @CCENRG-I, Correlation energies. ECCAA       -0.033556310775
                                  ECCBB       -0.016634911648
                                  ECCAB       -0.198407027436
                                  Total       -0.248598249859
 @CCENRG-I, Reference   energy    -106.632677701854
            CCSD/QCISD energy     -106.881275951714
          E4T (T(CCSD)) = -0.003587528906
          E5ST          =  0.000104998458
          E4ST          = -0.000002777436
          In other words  
          <T3[2](Dagger) D3  T3[2]> = -0.003587528906
          <T1   (Dagger) Q1 WT3[2]> =  0.000104998458
          <T2   (Dagger) Q2 FT3[2]> = -0.000002777436
        E(CCSD)           =    -106.881275951714
        E(CCSD(T))        =    -106.884761259598
  @CHECKOUT-I, Total execution time (CPU/WALL):        2.59/       2.85 seconds.
--executable xvcc finished with status     0 in        3.49 seconds (walltime).
  The final electronic energy is      -106.884761259597639 a.u. 
  This computation required                           10.06 seconds (walltime).
--- SharcNET Job Epilogue ---
Job completed successfully.
               jobid: 1968169
               resid: 3436345
         exit status: 0
      allocated time: 11.2422
           user time: 4.06
         system time: 1.02
peak rss=212156416; peak vsz=212156416 (bytes)
atime=11.2422; utime=4.06; stime=1.02; exit=0
