 --invoking executable--
/home/nike/cfour_v2.00beta/cfour_v2.00beta/bin/xjoda


   *************************************************************************
         <<<     CCCCCC     CCCCCC   |||     CCCCCC     CCCCCC   >>>
       <<<      CCC        CCC       |||    CCC        CCC         >>>
      <<<      CCC        CCC        |||   CCC        CCC            >>>
    <<<        CCC        CCC        |||   CCC        CCC              >>>
      <<<      CCC        CCC        |||   CCC        CCC            >>>
       <<<      CCC        CCC       |||    CCC        CCC         >>>
         <<<     CCCCCC     CCCCCC   |||     CCCCCC     CCCCCC   >>>
   *************************************************************************

     ****************************************************************
     * CFOUR Coupled-Cluster techniques for Computational Chemistry *
     ****************************************************************
 

   Department of Chemistry                Institut fuer Physikalische Chemie
   University of Texas at Austin          Universitaet Mainz
   Austin, TX  78712, USA                 D-55099 Mainz, Germany
 
                       Version 2.00beta
 
                     blg8345.int.ets1.calculquebec.ca                  
                     So 1. Mär 16:15:15 EST 2020                      
                     integer*8 version is running
 
********************************************************************************
*                          Input from ZMAT file                                *
********************************************************************************
TITLE                                                                           
O  0.0000  0.0000  0.2696                                                       
C  0.0000  1.1705 -0.5184                                                       
C  0.0000 -1.1705 -0.5184                                                       
C  0.0000  2.3716  0.4082                                                       
C  0.0000 -2.3716  0.4082                                                       
H -0.8879  1.1870 -1.1676                                                       
H  0.8879  1.1870 -1.1676                                                       
H  0.8879 -1.1870 -1.1676                                                       
H -0.8879 -1.1870 -1.1676                                                       
H  0.0000  3.2961 -0.1729                                                       
H  0.0000 -3.2961 -0.1729                                                       
H  0.8840  2.3552  1.0456                                                       
H -0.8840  2.3552  1.0456                                                       
H -0.8840 -2.3552  1.0456                                                       
H  0.8840 -2.3552  1.0456                                                       
                                                                                
*ACES2(CALC=CCSD(T)                                                             
#UNITS=BOHR                                                                     
#GEOM=2.6729874*10/5.29177210903_Pentasilane_def2-QZVP_pbe                      
COORD=CARTESIAN                                                                 
#COORD=INTERNAL                                                                 
PRINT=4                                                                         
JODA_PRINT=4                                                                    
INPUT_MRCC=OFF                                                                  
#CC_PROG=MRCC                                                                   
#FROZEN_CORE=ON                                                                 
DROPMO=1>5                                                                      
CONTRACTION=GENERAL                                                             
#CONTRACTION=SEGMENTED                                                          
RELATIVISTIC=OFF                                                                
#EXCITE=EOMEE                                                                   
#ESTATE_CONV=5                                                                  
#ESTATE_SYM=2/2/2/2/2/2/2/2                                                     
XFORM_TOL=18                                                                    
SAVE_INTS=ON                                                                    
SCF_EXPORDER=6                                                                  
SCF_EXPSTART=5                                                                  
#SCF_DAMPING=1000                                                               
SCF_EXTRAPOLATION=ON                                                            
SCF_CONV=12                                                                     
SCF_MAXCYC=99999                                                                
CC_CONV=9                                                                       
CC_MAXCYC=999                                                                   
T3_EXTRAPOL=ON                                                                  
REFERENCE=RHF                                                                   
#SYMMETRY=OFF                                                                   
#HFSTABILITY=FOLLOW                                                             
CHARGE=+0                                                                       
MULT=1                                                                          
ABCDTYPE=STANDARD                                                               
#OCCUPATION=3-2-2-0-1-0-0-0/3-1-1-0-1-0-0-0                                     
MEM=12                                                                          
MEM_UNIT=GB                                                                     
BASIS=SPECIAL)                                                                  
                                                                                
O:def2-TZVPP                                                                    
C:def2-TZVPP                                                                    
C:def2-TZVPP                                                                    
C:def2-TZVPP                                                                    
C:def2-TZVPP                                                                    
H:def2-TZVPP                                                                    
H:def2-TZVPP                                                                    
H:def2-TZVPP                                                                    
H:def2-TZVPP                                                                    
H:def2-TZVPP                                                                    
H:def2-TZVPP                                                                    
H:def2-TZVPP                                                                    
H:def2-TZVPP                                                                    
H:def2-TZVPP                                                                    
H:def2-TZVPP                                                                    
                                                                                
********************************************************************************
  @GTFLGS-W, Keyword #UNITS not known and is ignored.
  @GTFLGS-W, Keyword #GEOM not known and is ignored.
  @GTFLGS-W, Keyword #COORD not known and is ignored.
  @GTFLGS-W, Keyword #CC_PROG not known and is ignored.
  @GTFLGS-W, Keyword #FROZEN_CORE not known and is ignored.
  @GTFLGS-W, Keyword #CONTRACTION not known and is ignored.
  @GTFLGS-W, Keyword #EXCITE not known and is ignored.
  @GTFLGS-W, Keyword #ESTATE_CONV not known and is ignored.
  @GTFLGS-W, Keyword #ESTATE_SYM not known and is ignored.
  @GTFLGS-W, Keyword #SCF_DAMPING not known and is ignored.
  @GTFLGS-W, Keyword #SYMMETRY not known and is ignored.
  @GTFLGS-W, Keyword #HFSTABILITY not known and is ignored.
  @GTFLGS-W, Keyword #OCCUPATION not known and is ignored.
    -------------------------------------------------------------------
                    CFOUR Control Parameters 
    -------------------------------------------------------------------
        External           Internal           Value            Units
          Name               Name
    -------------------------------------------------------------------
       ABCDTYPE             IABCDT         STANDARD     [  0]   ***   
       ANHARMONIC           IANHAR         OFF          [  0]   ***   
       ANH_ALGORIT          IANALG         STANDARD     [  0]   ***   
       ANH_DERIVAT          IANDER         SECOND       [  1]   ***   
       ANH_STEPSIZ          ICUBST             50000          x 10-6  
       ANH_SYMMETR          IANHSM         ABELIAN      [  0]   ***   
       AO_LADDERS           IAOLAD         SINGLEPASS   [  1]   ***   
       BASIS                IBASIS         SPECIAL      [  0]   ***   
       BREIT                IBREIT         OFF          [  0]   ***   
       BRUCK_CONV           IBRTOL          10D-  4             ***   
       BRUECKNER            IBRKNR             OFF      [  0]   ***   
       BUFFERSIZE           IBUFFS            600               ***   
       CACHE_RECS           ICHREC             10               ***   
       CALCLEVEL            ICLLVL           CCSD(T)    [ 22]   ***   
       CCORBOPT             ICCORB             OFF      [  0] x 0.01  
       CC_CONV              ICCCNV          10D-  9             ***   
       CC_EXPORDER          ICCEOR              5               ***   
       CC_EXTRAPOL          ICCEXT             DIIS     [  1]   ***   
       CC_MAXCYC            ICCCYC            999              cycles 
       CC_PROGRAM           ICCPRO         VCC          [  0]   ***   
       CHARGE               ICHRGE              0               ***   
       CHOLESKY             ICHOLE         OFF          [  0]   ***   
       CIS_CONV             ICISTL              5               ***   
       COMM_SIZE            IPSIZE            ***               ***   
       CONSTANT             ICONST         OLD          [  1]   ***   
       CONTINUUM            ICONTU         NONE         [  0]   ***   
       CONTRACTION          ICNTYP          GENERAL     [  1]   ***   
       COORDINATES          ICOORD         CARTESIAN    [  1]   ***   
       CPHF_CONVER          ICPHFT          10D- 16             ***   
       CPHF_MAXCYC          ICPHFC             64              cycles 
       CUBIC                ICUBIC         OFF          [  0]   ***   
       CURVILINEAR          ICURVY            OFF       [  0]   ***   
       DBOC                 IDBOC          OFF          [  0]   ***   
       DCT                  IDCT           OFF          [  0]   ***   
       DERIV_LEV            IDRLVL            ZERO      [  0]   ***   
       DIAG_MRCC            IEOMST          10D-  0             ***   
       DIFF_TYPE            IDIFTY         RELAXED      [  0]   ***   
       DIRECT               IDIRCT         OFF          [  0]   ***   
       DROPMO               IDRPMO   1,  2,  3,  4,  5,
       ECP                  IECP           OFF          [  0]   ***   
       EIGENVECTOR          IVEC                1               ***   
       EL_ANHARM            IELANH         OFF          [  0]   ***   
       EOMFOLLOW            IEOMSR         ENERGY       [  0]   ***   
       EOM_MRCC             IMRCCE         NEW          [  1]   ***   
       EOM_NONIT            EOMNON         OFF          [  0]   ***   
       EOM_NSING            IEOMSI          10D-  0             ***   
       EOM_NSTATES          IMRCCD         DAVIDSON     [  0]   ***   
       EOM_NTRIP            IEOMTR          10D-  0             ***   
       EOM_ORDER            IEXORD         ENERGY       [  0]   ***   
       ESTATE_CONV          IEXTOL          10D-  5             ***   
       ESTATE_DIAG          IEXDIG         ITERATIVE    [  0]   ***   
       ESTATE_LOCK          IESLOC         ON           [  1]   ***   
       ESTATE_MAXC          IEXMXC             20               ***   
       ESTATE_PROP          IEXPRP         OFF          [  0]   ***   
       EVAL_HESS            IRECAL              0            # of cyc.
       EXCITATION           IEXCIT              0               ***   
       EXCITE               IEXCIT         NONE         [  0]   ***   
       FCGRADNEW            IFCGNW         OFF          [  0]   ***   
       FC_FIELD             IFINFC              0             x 10-6  
       FD_CALTYPE           IFDCAL         GRADONLY     [  0]   ***   
       FD_PROJECT           IFDPRJ         OFF          [  1]   ***   
       FD_STEPSIZE          IDISFD              0            10-4 bohr
       FD_USEGROUP          IFDGRP         FULL         [  0]   ***   
       FILE_RECSIZ          IFLREC              4096           words  
       FINITE_PERT          IFIPER              0             x 10-6  
       FIXGEOM              IFIXGM         OFF          [  0]   ***   
       FOCK                 IFOCK          AO           [  1]   ***   
       FREQ_ALGORI          IVIALG         STANDARD     [  0]   ***   
       FROZEN_CORE          IFROCO         OFF          [  0]   ***   
       FROZEN_VIRT          IFROVI         OFF          [  0]   ***   
       GAMMA_ABCD           IGABCD         STORE        [  0]   ***   
       GAMMA_ABCI           IGABCI         STORE        [  0]   ***   
       GENBAS_1             IGNBS1              0               ***   
       GENBAS_2             IGNBS2              0               ***   
       GENBAS_3             IGNBS3              0               ***   
       GENBAS_4             IGNBS4              0               ***   
       GEO_CONV             ICONTL              5              H/bohr 
       GEO_MAXCYC           IOPTCY             50               ***   
       GEO_MAXSTEP          IMXSTP            300            millibohr
       GEO_METHOD           INR            SINGLE_POINT [  5]   ***   
       GIAO                 IGIAO          OFF          [  1]   ***   
       GIMIC                IGIMIC         OFF          [  0]   ***   
       GRID                 IGRID          OFF          [  0]   ***   
       GRID_ALGO            IGALGO         SERIAL       [  0]   ***   
       GUESS                IGUESS            MOREAD    [  0]   ***   
       HBAR                 IHBAR              OFF      [  0]   ***   
       HESS_TYPE            IHESTP         SCF          [  0]   ***   
       HF2_FILE             IHF2Fl         USE          [  1]   ***   
       HFSTABILITY          ISTABL         OFF          [  0]   ***   
       INCORE               INCORE             OFF      [  0]   ***   
       INPUT_MRCC           IMRCC          OFF          [  0]   ***   
       INTEGRALS            INTTYP             VMOL     [  1]   ***   
       JODA_PRINT           IJPRNT              4               ***   
       LINDEP_TOL           ILINDP              8               ***   
       LINEQ_CONV           IZTACN          10D-  7           cycles  
       LINEQ_EXPOR          ILMAXD              5               ***   
       LINEQ_MAXCY          ILMAXC             50               ***   
       LINEQ_TYPE           ILTYPE         DIIS         [  1]   ***   
       LOCK_ORBOCC          ILOCOC             OFF      [  0]   ***   
       MEMORY_SIZE          IMEMSZ         *********           words  
       MEM_UNIT             IMEMU          GB           [  3]   ***   
       MRCC                 IMRCCC         OFF          [  0]   ***   
       MULTIPLICTY          IMULTP              1               ***   
       NEGEVAL              IDIE             ABORT      [  0]   ***   
       NEWNORM              INEWNO         OFF          [  0]   ***   
       NON-HF               INONHF             OFF      [  0]   ***   
       NTOP_TAMP            ITOPT2             15               ***   
       NUC_MODEL            INUCMO         POINT        [  0]   ***   
       OCCUPATION           IOCCU   ESTIMATED BY SCF 
       OPEN-SHELL           IOPEN          SPIN-ORBITAL [  0]   ***   
       ORBITALS             IORBTP           STANDARD   [  0]   ***   
       PARALLEL             IPARAL         ON           [  1]   ***   
       PARA_INT             IPINTS         ON           [  1]   ***   
       PARA_PRINT           IPPRIN              0               ***   
       PERT_ORB             IPTORB         STANDARD     [  0]   ***   
       POINTS               IGRDFD              0               ***   
       PRINT                IPRNT               4               ***   
       PROPS                IPROPS             OFF      [  0]   ***   
       PROP_INTEGR          IINTYP         INTERNAL     [  0]   ***   
       PSI                  IPSI           OFF          [  0]   ***   
       QUARTIC              IQUART         OFF          [  0]   ***   
       RAMAN_INT            IRAMIN         OFF          [  0]   ***   
       RAMAN_ORB            IRAMRE         UNRELAXED    [  0]   ***   
       RDO                  IRDOFM             OFF      [  0]   ***   
       REFERENCE            IREFNC             RHF      [  0]   ***   
       RELATIVIST           IRELAT         OFF          [  0]   ***   
       RELAX_DENS           IRDENS             OFF      [  0]   ***   
       RESET_FLAGS          IRESET             OFF      [  0]   ***   
       RESTART_CC           ICCRES         OFF          [  0]   ***   
       ROT_EVEC             ROTVEC              0               ***   
       SAVE_INTS            ISVINT              ON      [  1]   ***   
       SCALE_ON             ISTCRT              0               ***   
       SCF_CONV             ISCFCV          10D- 12             ***   
       SCF_DAMPING          IDAMP               0             x 10-3  
       SCF_EXPORDE          IRPPOR              6               ***   
       SCF_EXPSTAR          IRPPLS              5               ***   
       SCF_EXTRAPO          IRPP                ON      [  1]   ***   
       SCF_MAXCYC           ISCFCY            ***              cycles 
       SCF_NOSTOP           ISCFST         OFF          [  0]   ***   
       SCF_PRINT            ISCFPR              0               ***   
       SD_FIELD             IFINSD              0             x 10-6  
       SEQUENCE             ISEQUE         OFF          [  0]   ***   
       SOPERT               IPERSO         OFF          [  0]   ***   
       SPHERICAL            IDFGHI             ON       [  1]   ***   
       SPINORBIT            ISOCAL         OFF          [  0]   ***   
       SPINROTATIO          ISRCON         OFF          [  0]   ***   
       SPIN_FLIP            ISPFLP         OFF          [  0]   ***   
       SPIN_ORBIT           ISPORB         OFF          [  0]   ***   
       SPIN_SCAL            ISCSMP         OFF          [  0]   ***   
       SUBGROUP             ISUBGP         DEFAULT      [  0]   ***   
       SUBGRPAXIS           ISBXYZ         X            [  0]   ***   
       SYMMETRY             ISYM             ON         [  0]   ***   
       SYM_CHECK            ISYMCK         OVERRIDE     [  1]   ***   
       T3_EXTRAPOL          IT3EXT         ON           [  1]   ***   
       TAMP_SUM             IEVERY              5               ***   
       TESTSUITE            ITESTS         OFF          [  0]   ***   
       THERMOCH             ITHERM         OFF          [  0]   ***   
       TOL_CHOLESK          ITOLCH          10D-  4             ***   
       TRANGRAD             IRESRM         OFF          [  0]   ***   
       TRANS_INV            ITRAIN         USE          [  0]   ***   
       TREAT_PERT           ITREAT         SIMULTANEOUS [  0]   ***   
       UIJ_THRESHO          IUIJTH              1               ***   
       UNITS                IUNITS         ANGSTROM     [  0]   ***   
       UNOS                 IUNOS          OFF          [  0]   ***   
       UPDATE_HESS          IHUPDT         ON           [  1]   ***   
       VIBPHASE             ISETPH         STANDARD     [  0]   ***   
       VIBRATION            IVIB              NO        [  0]   ***   
       VIB_ALGORIT          IGEALG         STANDARD     [  0]   ***   
       VNATORB              IVNORB         OFF          [  0]   ***   
       VTRAN                IVTRAN         FULL/PARTIAL [  0]   ***   
       XFIELD               IXEFLD              0             x 10-6  
       XFORM_TOL            IXFTOL          10D- 18             ***   
       YFIELD               IYEFLD              0             x 10-6  
       ZFIELD               IZEFLD              0             x 10-6  
    -------------------------------------------------------------------
  @GETXYZ-I,    15 atoms read from ZMAT.
  1  O          8    15.99491
  2  C          6    12.00000
  3  C          6    12.00000
  4  C          6    12.00000
  5  C          6    12.00000
  6  H          1     1.00783
  7  H          1     1.00783
  8  H          1     1.00783
  9  H          1     1.00783
 10  H          1     1.00783
 11  H          1     1.00783
 12  H          1     1.00783
 13  H          1     1.00783
 14  H          1     1.00783
 15  H          1     1.00783
  1  O          8    15.99491
  2  C          6    12.00000
  3  C          6    12.00000
  4  C          6    12.00000
  5  C          6    12.00000
  6  H          1     1.00783
  7  H          1     1.00783
  8  H          1     1.00783
  9  H          1     1.00783
 10  H          1     1.00783
 11  H          1     1.00783
 12  H          1     1.00783
 13  H          1     1.00783
 14  H          1     1.00783
 15  H          1     1.00783
   15.9949146300
   12.0000000000
   12.0000000000
   12.0000000000
   12.0000000000
    1.0078250350
    1.0078250350
    1.0078250350
    1.0078250350
    1.0078250350
    1.0078250350
    1.0078250350
    1.0078250350
    1.0078250350
    1.0078250350
 After translation to center of mass coordinates 
        0.000000000000    0.000000000000    0.488369494099
        0.000000000000    2.211924892441   -1.000735004187
        0.000000000000   -2.211924892441   -1.000735004187
        0.000000000000    4.481675416415    0.750285589864
        0.000000000000   -4.481675416415    0.750285589864
       -1.677888177701    2.243105380033   -2.227545461405
        1.677888177701    2.243105380033   -2.227545461405
        1.677888177701   -2.243105380033   -2.227545461405
       -1.677888177701   -2.243105380033   -2.227545461405
        0.000000000000    6.228727584773   -0.347834491296
        0.000000000000   -6.228727584773   -0.347834491296
        1.670518244270    4.450683901476    1.954797274137
       -1.670518244270    4.450683901476    1.954797274137
       -1.670518244270   -4.450683901476    1.954797274137
        1.670518244270   -4.450683901476    1.954797274137
  Inertia tensor (amu*bohr**2)
  854.82383    0.00000    0.00000
    0.00000   99.61122    0.00000
    0.00000    0.00000  800.41106
    Inertia tensor:
      854.823826825563    0.000000000000    0.000000000000
        0.000000000000   99.611217074522    0.000000000000
        0.000000000000    0.000000000000  800.411062691492
    Principal axis orientation for molecular system: 
        0.000000000000    0.488369494099    0.000000000000
        2.211924892441   -1.000735004187    0.000000000000
       -2.211924892441   -1.000735004187    0.000000000000
        4.481675416415    0.750285589864    0.000000000000
       -4.481675416415    0.750285589864    0.000000000000
        2.243105380033   -2.227545461405   -1.677888177701
        2.243105380033   -2.227545461405    1.677888177701
       -2.243105380033   -2.227545461405    1.677888177701
       -2.243105380033   -2.227545461405   -1.677888177701
        6.228727584773   -0.347834491296    0.000000000000
       -6.228727584773   -0.347834491296    0.000000000000
        4.450683901476    1.954797274137    1.670518244270
        4.450683901476    1.954797274137   -1.670518244270
       -4.450683901476    1.954797274137   -1.670518244270
       -4.450683901476    1.954797274137    1.670518244270
    Diagonalized inertia tensor:
       99.611217074522    0.000000000000    0.000000000000
        0.000000000000  800.411062691492    0.000000000000
        0.000000000000    0.000000000000  854.823826825563
    Eigenvectors of inertia tensor: 
        0.000000000000    0.000000000000    1.000000000000
        1.000000000000    0.000000000000    0.000000000000
        0.000000000000    1.000000000000    0.000000000000
 factor:   60.1997200000000     
   Rotational constants (in cm-1): 
          0.0704235400             0.0752110045             0.6043467972
   Rotational constants (in MHz): 
       2111.2449128986          2254.7695052356         18117.8637186997
  @SYMMETRY-I, Handedness of inertial frame: 1.00000
  @SYMMETRY-I, The symmetry group is 1-fold degenerate.
  @SYMMETRY-I, The molecule belongs to an Abelian group.
   Principal axis orientation for molecule:
        0.000000000000    0.488369494099    0.000000000000
        2.211924892441   -1.000735004187    0.000000000000
       -2.211924892441   -1.000735004187    0.000000000000
        4.481675416415    0.750285589864    0.000000000000
       -4.481675416415    0.750285589864    0.000000000000
        2.243105380033   -2.227545461405   -1.677888177701
        2.243105380033   -2.227545461405    1.677888177701
       -2.243105380033   -2.227545461405    1.677888177701
       -2.243105380033   -2.227545461405   -1.677888177701
        6.228727584773   -0.347834491296    0.000000000000
       -6.228727584773   -0.347834491296    0.000000000000
        4.450683901476    1.954797274137    1.670518244270
        4.450683901476    1.954797274137   -1.670518244270
       -4.450683901476    1.954797274137   -1.670518244270
       -4.450683901476    1.954797274137    1.670518244270
   Reflection in plane  3 is a valid symmetry operation.
   Rotation about  2 is a valid symmetry operation 
   Reflection in plane  1 is a valid symmetry operation.
  Symmetry bits:    5   2   0
********************************************************************************
   The full molecular point group is C2v .
   The largest Abelian subgroup of the full molecular point group is C2v .
   The computational point group is C2v .
********************************************************************************
 ----------------------------------------------------------------
 Z-matrix   Atomic            Coordinates (in bohr)
  Symbol    Number           X              Y              Z
 ----------------------------------------------------------------
     O         8         0.00000000     0.00000000     0.48836949
     C         6         0.00000000     2.21192489    -1.00073500
     C         6         0.00000000    -2.21192489    -1.00073500
     C         6         0.00000000     4.48167542     0.75028559
     C         6         0.00000000    -4.48167542     0.75028559
     H         1        -1.67788818     2.24310538    -2.22754546
     H         1         1.67788818     2.24310538    -2.22754546
     H         1         1.67788818    -2.24310538    -2.22754546
     H         1        -1.67788818    -2.24310538    -2.22754546
     H         1         0.00000000     6.22872758    -0.34783449
     H         1         0.00000000    -6.22872758    -0.34783449
     H         1         1.67051824     4.45068390     1.95479727
     H         1        -1.67051824     4.45068390     1.95479727
     H         1        -1.67051824    -4.45068390     1.95479727
     H         1         1.67051824    -4.45068390     1.95479727
 ----------------------------------------------------------------
   Interatomic distance matrix (Angstroms) 
 
                 O             C             C             C             C    
                [ 1]        [ 2]        [ 3]        [ 4]        [ 5]
  O    [ 1]     0.00000
  C    [ 2]     1.41103     0.00000
  C    [ 3]     1.41103     2.34100     0.00000
  C    [ 4]     2.37565     1.51698     3.66129     0.00000
  C    [ 5]     2.37565     3.66129     1.51698     4.74320     0.00000
  H    [ 6]     2.06467     1.10005     2.60147     2.16213     3.99189
  H    [ 7]     2.06467     1.10005     2.60147     2.16213     3.99189
  H    [ 8]     2.06467     2.60147     1.10005     3.99189     2.16213
  H    [ 9]     2.06467     2.60147     1.10005     3.99189     2.16213
  H    [10]     3.32567     2.15350     4.47994     1.09196     5.69741
  H    [11]     3.32567     4.47994     2.15350     5.69741     1.09196
  H    [12]     2.63260     2.15199     3.95703     1.08996     4.85081
  H    [13]     2.63260     2.15199     3.95703     1.08996     4.85081
  H    [14]     2.63260     3.95703     2.15199     4.85081     1.08996
  H    [15]     2.63260     3.95703     2.15199     4.85081     1.08996
 
                 H             H             H             H             H    
                [ 6]        [ 7]        [ 8]        [ 9]        [10]
  H    [ 6]     0.00000
  H    [ 7]     1.77580     0.00000
  H    [ 8]     2.96468     2.37400     0.00000
  H    [ 9]     2.37400     2.96468     1.77580     0.00000
  H    [10]     2.49521     2.49521     4.67718     4.67718     0.00000
  H    [11]     4.67718     4.67718     2.49521     2.49521     6.59220
  H    [12]     3.06636     2.50259     4.17678     4.53708     1.77524
  H    [13]     2.50259     3.06636     4.53708     4.17678     1.77524
  H    [14]     4.17678     4.53708     3.06636     2.50259     5.84837
  H    [15]     4.53708     4.17678     2.50259     3.06636     5.84837
 
                 H             H             H             H             H    
                [11]        [12]        [13]        [14]        [15]
  H    [11]     0.00000
  H    [12]     5.84837     0.00000
  H    [13]     5.84837     1.76800     0.00000
  H    [14]     1.77524     5.03127     4.71040     0.00000
  H    [15]     1.77524     4.71040     5.03127     1.76800     0.00000
  Inertia tensor (amu*bohr**2)
  854.82383    0.00000    0.00000
    0.00000   99.61122    0.00000
    0.00000    0.00000  800.41106
   Rotational constants (in cm-1): 
          0.0704235400             0.6043467972             0.0752110045
   Rotational constants (in MHz): 
       2111.2449128986         18117.8637186997          2254.7695052356
  @GTFLGS-W, Keyword #UNITS not known and is ignored.
  @GTFLGS-W, Keyword #GEOM not known and is ignored.
  @GTFLGS-W, Keyword #COORD not known and is ignored.
  @GTFLGS-W, Keyword #CC_PROG not known and is ignored.
  @GTFLGS-W, Keyword #FROZEN_CORE not known and is ignored.
  @GTFLGS-W, Keyword #CONTRACTION not known and is ignored.
  @GTFLGS-W, Keyword #EXCITE not known and is ignored.
  @GTFLGS-W, Keyword #ESTATE_CONV not known and is ignored.
  @GTFLGS-W, Keyword #ESTATE_SYM not known and is ignored.
  @GTFLGS-W, Keyword #SCF_DAMPING not known and is ignored.
  @GTFLGS-W, Keyword #SYMMETRY not known and is ignored.
  @GTFLGS-W, Keyword #HFSTABILITY not known and is ignored.
  @GTFLGS-W, Keyword #OCCUPATION not known and is ignored.
  There are  295 basis functions.
 @GEOPT-W, Archive file not created for single-point calculation.
  @CHECKOUT-I, Total execution time (CPU/WALL):        0.70/      31.64 seconds.
--executable xjoda finished with status     0 in       33.63 seconds (walltime).
 --invoking executable--
/home/nike/cfour_v2.00beta/cfour_v2.00beta/bin/xvmol
 Serial version of molecule started
********************************************************************************
                    Input from MOL file
********************************************************************************
INTGRL        1    0    1    0    0    0    0    0    0                         
         *** CFOUR Program System (Release V0.1) ***                            
TITLE                                                                           
    6    2 X  Y       0.10E-08              0    0                              
   9999.00      3.00                                                            
          8.00000000    1    4    1    1    1    1                              
O #1   0.000000000000000   0.000000000000000   0.488369494099029                
   11    5                                                                      
   27032.3826310000       2.172630246500000E-004  0.000000000000000E+000        
  0.000000000000000E+000  0.000000000000000E+000  0.000000000000000E+000        
   4052.38713920000       1.683866219900000E-003  0.000000000000000E+000        
  0.000000000000000E+000  0.000000000000000E+000  0.000000000000000E+000        
   922.327227100000       8.739561626499999E-003  0.000000000000000E+000        
  0.000000000000000E+000  0.000000000000000E+000  0.000000000000000E+000        
   261.240709890000       3.523996880800000E-002  0.000000000000000E+000        
  0.000000000000000E+000  0.000000000000000E+000  0.000000000000000E+000        
   85.3546413510000       0.111535191150000       0.000000000000000E+000        
  0.000000000000000E+000  0.000000000000000E+000  0.000000000000000E+000        
   31.0350352450000       0.255889539610000       0.000000000000000E+000        
  0.000000000000000E+000  0.000000000000000E+000  0.000000000000000E+000        
   12.2608607280000       0.000000000000000E+000  0.397687309010000             
  0.000000000000000E+000  0.000000000000000E+000  0.000000000000000E+000        
   4.99870760050000       0.000000000000000E+000  0.246278494300000             
  0.000000000000000E+000  0.000000000000000E+000  0.000000000000000E+000        
   1.17031081580000       0.000000000000000E+000  0.000000000000000E+000        
   1.00000000000000       0.000000000000000E+000  0.000000000000000E+000        
  0.464747409940000       0.000000000000000E+000  0.000000000000000E+000        
  0.000000000000000E+000   1.00000000000000       0.000000000000000E+000        
  0.185045363570000       0.000000000000000E+000  0.000000000000000E+000        
  0.000000000000000E+000  0.000000000000000E+000   1.00000000000000             
    6    3                                                                      
   63.2749548010000       6.068510341800000E-003  0.000000000000000E+000        
  0.000000000000000E+000                                                        
   14.6270493790000       4.191257582400000E-002  0.000000000000000E+000        
  0.000000000000000E+000                                                        
   4.45012234560000       0.161538410880000       0.000000000000000E+000        
  0.000000000000000E+000                                                        
   1.52757996470000       0.357069513110000       0.000000000000000E+000        
  0.000000000000000E+000                                                        
  0.529351179430000       0.000000000000000E+000  0.447942075020000             
  0.000000000000000E+000                                                        
  0.174784212700000       0.000000000000000E+000  0.000000000000000E+000        
  0.244460696630000                                                             
    2    2                                                                      
   2.31400000000000        1.00000000000000       0.000000000000000E+000        
  0.645000000000000       0.000000000000000E+000   1.00000000000000             
    1    1                                                                      
   1.42800000000000        1.00000000000000                                     
          6.00000000    1    4    1    1    1    1                              
C #2   0.000000000000000   2.211924892441491  -1.000735004187084                
   11    5                                                                      
   13575.3496820000       2.224581435200000E-004  0.000000000000000E+000        
  0.000000000000000E+000  0.000000000000000E+000  0.000000000000000E+000        
   2035.23336800000       1.723273825200000E-003  0.000000000000000E+000        
  0.000000000000000E+000  0.000000000000000E+000  0.000000000000000E+000        
   463.225623590000       8.925571531400001E-003  0.000000000000000E+000        
  0.000000000000000E+000  0.000000000000000E+000  0.000000000000000E+000        
   131.200195980000       3.572798450200000E-002  0.000000000000000E+000        
  0.000000000000000E+000  0.000000000000000E+000  0.000000000000000E+000        
   42.8530158910000       0.110762599310000       0.000000000000000E+000        
  0.000000000000000E+000  0.000000000000000E+000  0.000000000000000E+000        
   15.5841857660000       0.242956276260000       0.000000000000000E+000        
  0.000000000000000E+000  0.000000000000000E+000  0.000000000000000E+000        
   6.20671385080000       0.000000000000000E+000  0.414402634480000             
  0.000000000000000E+000  0.000000000000000E+000  0.000000000000000E+000        
   2.57648965270000       0.000000000000000E+000  0.237449686550000             
  0.000000000000000E+000  0.000000000000000E+000  0.000000000000000E+000        
  0.576963394190000       0.000000000000000E+000  0.000000000000000E+000        
   1.00000000000000       0.000000000000000E+000  0.000000000000000E+000        
  0.229728313580000       0.000000000000000E+000  0.000000000000000E+000        
  0.000000000000000E+000   1.00000000000000       0.000000000000000E+000        
  9.516444002799999E-002  0.000000000000000E+000  0.000000000000000E+000        
  0.000000000000000E+000  0.000000000000000E+000   1.00000000000000             
    6    3                                                                      
   34.6972322440000       5.333365780500000E-003  0.000000000000000E+000        
  0.000000000000000E+000                                                        
   7.95826228260000       3.586410909200000E-002  0.000000000000000E+000        
  0.000000000000000E+000                                                        
   2.37808268830000       0.142158733290000       0.000000000000000E+000        
  0.000000000000000E+000                                                        
  0.814332081830000       0.342704718450000       0.000000000000000E+000        
  0.000000000000000E+000                                                        
  0.288875472530000       0.000000000000000E+000  0.464458224330000             
  0.000000000000000E+000                                                        
  0.100568236710000       0.000000000000000E+000  0.000000000000000E+000        
  0.249557898740000                                                             
    2    2                                                                      
   1.09700000000000        1.00000000000000       0.000000000000000E+000        
  0.318000000000000       0.000000000000000E+000   1.00000000000000             
    1    1                                                                      
  0.761000000000000        1.00000000000000                                     
          6.00000000    1    4    1    1    1    1                              
C #3   0.000000000000000   4.481675416415412   0.750285589863566                
   11    5                                                                      
   13575.3496820000       2.224581435200000E-004  0.000000000000000E+000        
  0.000000000000000E+000  0.000000000000000E+000  0.000000000000000E+000        
   2035.23336800000       1.723273825200000E-003  0.000000000000000E+000        
  0.000000000000000E+000  0.000000000000000E+000  0.000000000000000E+000        
   463.225623590000       8.925571531400001E-003  0.000000000000000E+000        
  0.000000000000000E+000  0.000000000000000E+000  0.000000000000000E+000        
   131.200195980000       3.572798450200000E-002  0.000000000000000E+000        
  0.000000000000000E+000  0.000000000000000E+000  0.000000000000000E+000        
   42.8530158910000       0.110762599310000       0.000000000000000E+000        
  0.000000000000000E+000  0.000000000000000E+000  0.000000000000000E+000        
   15.5841857660000       0.242956276260000       0.000000000000000E+000        
  0.000000000000000E+000  0.000000000000000E+000  0.000000000000000E+000        
   6.20671385080000       0.000000000000000E+000  0.414402634480000             
  0.000000000000000E+000  0.000000000000000E+000  0.000000000000000E+000        
   2.57648965270000       0.000000000000000E+000  0.237449686550000             
  0.000000000000000E+000  0.000000000000000E+000  0.000000000000000E+000        
  0.576963394190000       0.000000000000000E+000  0.000000000000000E+000        
   1.00000000000000       0.000000000000000E+000  0.000000000000000E+000        
  0.229728313580000       0.000000000000000E+000  0.000000000000000E+000        
  0.000000000000000E+000   1.00000000000000       0.000000000000000E+000        
  9.516444002799999E-002  0.000000000000000E+000  0.000000000000000E+000        
  0.000000000000000E+000  0.000000000000000E+000   1.00000000000000             
    6    3                                                                      
   34.6972322440000       5.333365780500000E-003  0.000000000000000E+000        
  0.000000000000000E+000                                                        
   7.95826228260000       3.586410909200000E-002  0.000000000000000E+000        
  0.000000000000000E+000                                                        
   2.37808268830000       0.142158733290000       0.000000000000000E+000        
  0.000000000000000E+000                                                        
  0.814332081830000       0.342704718450000       0.000000000000000E+000        
  0.000000000000000E+000                                                        
  0.288875472530000       0.000000000000000E+000  0.464458224330000             
  0.000000000000000E+000                                                        
  0.100568236710000       0.000000000000000E+000  0.000000000000000E+000        
  0.249557898740000                                                             
    2    2                                                                      
   1.09700000000000        1.00000000000000       0.000000000000000E+000        
  0.318000000000000       0.000000000000000E+000   1.00000000000000             
    1    1                                                                      
  0.761000000000000        1.00000000000000                                     
          1.00000000    1    3    1    1    1                                   
H #4  -1.677888177700811   2.243105380032508  -2.227545461404526                
    5    3                                                                      
   34.0613410000000       6.025197800000000E-003  0.000000000000000E+000        
  0.000000000000000E+000                                                        
   5.12357460000000       4.502109400000000E-002  0.000000000000000E+000        
  0.000000000000000E+000                                                        
   1.16466260000000       0.201897260000000       0.000000000000000E+000        
  0.000000000000000E+000                                                        
  0.327230410000000       0.000000000000000E+000   1.00000000000000             
  0.000000000000000E+000                                                        
  0.103072410000000       0.000000000000000E+000  0.000000000000000E+000        
   1.00000000000000                                                             
    2    2                                                                      
   1.40700000000000        1.00000000000000       0.000000000000000E+000        
  0.388000000000000       0.000000000000000E+000   1.00000000000000             
    1    1                                                                      
   1.05700000000000        1.00000000000000                                     
          1.00000000    1    3    1    1    1                                   
H #5   0.000000000000000   6.228727584772660  -0.347834491296409                
    5    3                                                                      
   34.0613410000000       6.025197800000000E-003  0.000000000000000E+000        
  0.000000000000000E+000                                                        
   5.12357460000000       4.502109400000000E-002  0.000000000000000E+000        
  0.000000000000000E+000                                                        
   1.16466260000000       0.201897260000000       0.000000000000000E+000        
  0.000000000000000E+000                                                        
  0.327230410000000       0.000000000000000E+000   1.00000000000000             
  0.000000000000000E+000                                                        
  0.103072410000000       0.000000000000000E+000  0.000000000000000E+000        
   1.00000000000000                                                             
    2    2                                                                      
   1.40700000000000        1.00000000000000       0.000000000000000E+000        
  0.388000000000000       0.000000000000000E+000   1.00000000000000             
    1    1                                                                      
   1.05700000000000        1.00000000000000                                     
          1.00000000    1    3    1    1    1                                   
H #6   1.670518244270208   4.450683901476463   1.954797274137130                
    5    3                                                                      
   34.0613410000000       6.025197800000000E-003  0.000000000000000E+000        
  0.000000000000000E+000                                                        
   5.12357460000000       4.502109400000000E-002  0.000000000000000E+000        
  0.000000000000000E+000                                                        
   1.16466260000000       0.201897260000000       0.000000000000000E+000        
  0.000000000000000E+000                                                        
  0.327230410000000       0.000000000000000E+000   1.00000000000000             
  0.000000000000000E+000                                                        
  0.103072410000000       0.000000000000000E+000  0.000000000000000E+000        
   1.00000000000000                                                             
    2    2                                                                      
   1.40700000000000        1.00000000000000       0.000000000000000E+000        
  0.388000000000000       0.000000000000000E+000   1.00000000000000             
    1    1                                                                      
   1.05700000000000        1.00000000000000                                     
FINISH                                                                          
 
********************************************************************************
 One- and two-electron integrals over symmetry-adapted AOs are calculated.

  Spherical harmonics are used.
  
   6 types of atoms
   2 symmetry operations

   Reflection in the YZ-plane
   Reflection in the XZ-plane
  
  Integrals less than  0.10E-13 are neglected.

  Atomic type number  1 :
  -----------------------

    Nuclear charge:                        8
    number of symmetry independent atoms:  1
    highest orbital type:                  f

      1 groups of CGTOs of s type
      1 groups of CGTOs of p type
      1 groups of CGTOs of d type
      1 groups of CGTOs of f type

    nuclear coordinates (in a.u.) are :

    O #1        0.000000000000000        0.000000000000000        0.488369494099029
  
   Basis function not normalized: 
   Center (as ordered in MOL file):   1
   Angular Momentum type          : s
   Offset within angular momentum :  1
   <chi|chi>                      :    2.6340117148
   Basis function not normalized: 
   Center (as ordered in MOL file):   1
   Angular Momentum type          : s
   Offset within angular momentum :  2
   <chi|chi>                      :    1.6052797155
   Basis function not normalized: 
   Center (as ordered in MOL file):   1
   Angular Momentum type          : p
   Offset within angular momentum :  1
   <chi|chi>                      :    1.9804419117
   Basis function not normalized: 
   Center (as ordered in MOL file):   1
   Angular Momentum type          : p
   Offset within angular momentum :  2
   <chi|chi>                      :    2.2324315035
   Basis function not normalized: 
   Center (as ordered in MOL file):   1
   Angular Momentum type          : p
   Offset within angular momentum :  3
   <chi|chi>                      :    4.0906371199
  Atomic type number  2 :
  -----------------------

    Nuclear charge:                        6
    number of symmetry independent atoms:  1
    highest orbital type:                  f

      1 groups of CGTOs of s type
      1 groups of CGTOs of p type
      1 groups of CGTOs of d type
      1 groups of CGTOs of f type

    nuclear coordinates (in a.u.) are :

    C #2        0.000000000000000        2.211924892441491       -1.000735004187084
  
   Basis function not normalized: 
   Center (as ordered in MOL file):   2
   Angular Momentum type          : s
   Offset within angular momentum :  1
   <chi|chi>                      :    2.7261534527
   Basis function not normalized: 
   Center (as ordered in MOL file):   2
   Angular Momentum type          : s
   Offset within angular momentum :  2
   <chi|chi>                      :    1.5828883092
   Basis function not normalized: 
   Center (as ordered in MOL file):   2
   Angular Momentum type          : p
   Offset within angular momentum :  1
   <chi|chi>                      :    2.1238408295
   Basis function not normalized: 
   Center (as ordered in MOL file):   2
   Angular Momentum type          : p
   Offset within angular momentum :  2
   <chi|chi>                      :    2.1530461678
   Basis function not normalized: 
   Center (as ordered in MOL file):   2
   Angular Momentum type          : p
   Offset within angular momentum :  3
   <chi|chi>                      :    4.0070861513
  Atomic type number  3 :
  -----------------------

    Nuclear charge:                        6
    number of symmetry independent atoms:  1
    highest orbital type:                  f

      1 groups of CGTOs of s type
      1 groups of CGTOs of p type
      1 groups of CGTOs of d type
      1 groups of CGTOs of f type

    nuclear coordinates (in a.u.) are :

    C #3        0.000000000000000        4.481675416415412        0.750285589863566
  
   Basis function not normalized: 
   Center (as ordered in MOL file):   3
   Angular Momentum type          : s
   Offset within angular momentum :  1
   <chi|chi>                      :    2.7261534527
   Basis function not normalized: 
   Center (as ordered in MOL file):   3
   Angular Momentum type          : s
   Offset within angular momentum :  2
   <chi|chi>                      :    1.5828883092
   Basis function not normalized: 
   Center (as ordered in MOL file):   3
   Angular Momentum type          : p
   Offset within angular momentum :  1
   <chi|chi>                      :    2.1238408295
   Basis function not normalized: 
   Center (as ordered in MOL file):   3
   Angular Momentum type          : p
   Offset within angular momentum :  2
   <chi|chi>                      :    2.1530461678
   Basis function not normalized: 
   Center (as ordered in MOL file):   3
   Angular Momentum type          : p
   Offset within angular momentum :  3
   <chi|chi>                      :    4.0070861513
  Atomic type number  4 :
  -----------------------

    Nuclear charge:                        1
    number of symmetry independent atoms:  1
    highest orbital type:                  d

      1 groups of CGTOs of s type
      1 groups of CGTOs of p type
      1 groups of CGTOs of d type

    nuclear coordinates (in a.u.) are :

    H #4       -1.677888177700811        2.243105380032508       -2.227545461404526
  
   Basis function not normalized: 
   Center (as ordered in MOL file):   4
   Angular Momentum type          : s
   Offset within angular momentum :  1
   <chi|chi>                      :    4.2221530402
  Atomic type number  5 :
  -----------------------

    Nuclear charge:                        1
    number of symmetry independent atoms:  1
    highest orbital type:                  d

      1 groups of CGTOs of s type
      1 groups of CGTOs of p type
      1 groups of CGTOs of d type

    nuclear coordinates (in a.u.) are :

    H #5        0.000000000000000        6.228727584772660       -0.347834491296409
  
   Basis function not normalized: 
   Center (as ordered in MOL file):   5
   Angular Momentum type          : s
   Offset within angular momentum :  1
   <chi|chi>                      :    4.2221530402
  Atomic type number  6 :
  -----------------------

    Nuclear charge:                        1
    number of symmetry independent atoms:  1
    highest orbital type:                  d

      1 groups of CGTOs of s type
      1 groups of CGTOs of p type
      1 groups of CGTOs of d type

    nuclear coordinates (in a.u.) are :

    H #6        1.670518244270208        4.450683901476463        1.954797274137130
  
   Basis function not normalized: 
   Center (as ordered in MOL file):   6
   Angular Momentum type          : s
   Offset within angular momentum :  1
   <chi|chi>                      :    4.2221530402
   Internuclear distances (A) :

     for atom O #1 (coordinates :   0.00000   0.00000   0.48837)

     C #2   1     distance is  1.411
     C #3   1     distance is  2.376
     H #4   1     distance is  2.065
     H #5   1     distance is  3.326
     H #6   1     distance is  2.633

     for atom C #2 (coordinates :   0.00000   2.21192  -1.00074)

     C #2   3     distance is  2.341
     C #3   1     distance is  1.517
     C #3   3     distance is  3.661
     H #4   1     distance is  1.100
     H #4   3     distance is  2.601
     H #5   1     distance is  2.153
     H #5   3     distance is  4.480
     H #6   1     distance is  2.152
     H #6   3     distance is  3.957

     for atom C #3 (coordinates :   0.00000   4.48168   0.75029)

     C #3   3     distance is  4.743
     H #4   1     distance is  2.162
     H #4   3     distance is  3.992
     H #5   1     distance is  1.092
     H #5   3     distance is  5.697
     H #6   1     distance is  1.090
     H #6   3     distance is  4.851

     for atom H #4 (coordinates :  -1.67789   2.24311  -2.22755)

     H #4   2     distance is  1.776
     H #4   3     distance is  2.374
     H #4   4     distance is  2.965
     H #5   1     distance is  2.495
     H #5   3     distance is  4.677
     H #6   1     distance is  3.066
     H #6   2     distance is  2.503
     H #6   3     distance is  4.537
     H #6   4     distance is  4.177

     for atom H #5 (coordinates :   0.00000   6.22873  -0.34783)

     H #5   3     distance is  6.592
     H #6   1     distance is  1.775
     H #6   3     distance is  5.848

     for atom H #6 (coordinates :   1.67052   4.45068   1.95480)

     H #6   2     distance is  1.768
     H #6   3     distance is  4.710
     H #6   4     distance is  5.031

   Group multiplication table :

         1   2   3   4
         2   1   4   3
         3   4   1   2
         4   3   2   1

   Gaussian basis information :

   atom                 exponent      coefficients

 O #1  1    S   
+                 1   27032.382631   0.0002173   0.0000000   0.0000000   0.0000000   0.0000000
                  2    4052.387139   0.0016839   0.0000000   0.0000000   0.0000000   0.0000000
                  3     922.327227   0.0087396   0.0000000   0.0000000   0.0000000   0.0000000
                  4     261.240710   0.0352400   0.0000000   0.0000000   0.0000000   0.0000000
                  5      85.354641   0.1115352   0.0000000   0.0000000   0.0000000   0.0000000
                  6      31.035035   0.2558895   0.0000000   0.0000000   0.0000000   0.0000000
                  7      12.260861   0.0000000   0.3976873   0.0000000   0.0000000   0.0000000
                  8       4.998708   0.0000000   0.2462785   0.0000000   0.0000000   0.0000000
                  9       1.170311   0.0000000   0.0000000   1.0000000   0.0000000   0.0000000
                 10       0.464747   0.0000000   0.0000000   0.0000000   1.0000000   0.0000000
                 11       0.185045   0.0000000   0.0000000   0.0000000   0.0000000   1.0000000

 O #1  1    X   
+                12      63.274955   0.0060685   0.0000000   0.0000000
                 13      14.627049   0.0419126   0.0000000   0.0000000
                 14       4.450122   0.1615384   0.0000000   0.0000000
                 15       1.527580   0.3570695   0.0000000   0.0000000
                 16       0.529351   0.0000000   0.4479421   0.0000000
                 17       0.174784   0.0000000   0.0000000   0.2444607

 O #1  1    Y   
+                18      63.274955   0.0060685   0.0000000   0.0000000
                 19      14.627049   0.0419126   0.0000000   0.0000000
                 20       4.450122   0.1615384   0.0000000   0.0000000
                 21       1.527580   0.3570695   0.0000000   0.0000000
                 22       0.529351   0.0000000   0.4479421   0.0000000
                 23       0.174784   0.0000000   0.0000000   0.2444607

 O #1  1    Z   
+                24      63.274955   0.0060685   0.0000000   0.0000000
                 25      14.627049   0.0419126   0.0000000   0.0000000
                 26       4.450122   0.1615384   0.0000000   0.0000000
                 27       1.527580   0.3570695   0.0000000   0.0000000
                 28       0.529351   0.0000000   0.4479421   0.0000000
                 29       0.174784   0.0000000   0.0000000   0.2444607

 O #1  1    XX  
+                30       2.314000   1.0000000   0.0000000
                 31       0.645000   0.0000000   1.0000000

 O #1  1    XY  
+                32       2.314000   1.0000000   0.0000000
                 33       0.645000   0.0000000   1.0000000

 O #1  1    XZ  
+                34       2.314000   1.0000000   0.0000000
                 35       0.645000   0.0000000   1.0000000

 O #1  1    YY  
+                36       2.314000   1.0000000   0.0000000
                 37       0.645000   0.0000000   1.0000000

 O #1  1    YZ  
+                38       2.314000   1.0000000   0.0000000
                 39       0.645000   0.0000000   1.0000000

 O #1  1    ZZ  
+                40       2.314000   1.0000000   0.0000000
                 41       0.645000   0.0000000   1.0000000

 O #1  1    F300
+                42       1.428000   1.0000000

 O #1  1    F210
+                43       1.428000   1.0000000

 O #1  1    F201
+                44       1.428000   1.0000000

 O #1  1    F120
+                45       1.428000   1.0000000

 O #1  1    F111
+                46       1.428000   1.0000000

 O #1  1    F102
+                47       1.428000   1.0000000

 O #1  1    F030
+                48       1.428000   1.0000000

 O #1  1    F021
+                49       1.428000   1.0000000

 O #1  1    F012
+                50       1.428000   1.0000000

 O #1  1    F003
+                51       1.428000   1.0000000

 C #2  1    S   
+                52   13575.349682   0.0002225   0.0000000   0.0000000   0.0000000   0.0000000
                 53    2035.233368   0.0017233   0.0000000   0.0000000   0.0000000   0.0000000
                 54     463.225624   0.0089256   0.0000000   0.0000000   0.0000000   0.0000000
                 55     131.200196   0.0357280   0.0000000   0.0000000   0.0000000   0.0000000
                 56      42.853016   0.1107626   0.0000000   0.0000000   0.0000000   0.0000000
                 57      15.584186   0.2429563   0.0000000   0.0000000   0.0000000   0.0000000
                 58       6.206714   0.0000000   0.4144026   0.0000000   0.0000000   0.0000000
                 59       2.576490   0.0000000   0.2374497   0.0000000   0.0000000   0.0000000
                 60       0.576963   0.0000000   0.0000000   1.0000000   0.0000000   0.0000000
                 61       0.229728   0.0000000   0.0000000   0.0000000   1.0000000   0.0000000
                 62       0.095164   0.0000000   0.0000000   0.0000000   0.0000000   1.0000000

 C #2  3    S   
+                63   13575.349682   0.0002225   0.0000000   0.0000000   0.0000000   0.0000000
                 64    2035.233368   0.0017233   0.0000000   0.0000000   0.0000000   0.0000000
                 65     463.225624   0.0089256   0.0000000   0.0000000   0.0000000   0.0000000
                 66     131.200196   0.0357280   0.0000000   0.0000000   0.0000000   0.0000000
                 67      42.853016   0.1107626   0.0000000   0.0000000   0.0000000   0.0000000
                 68      15.584186   0.2429563   0.0000000   0.0000000   0.0000000   0.0000000
                 69       6.206714   0.0000000   0.4144026   0.0000000   0.0000000   0.0000000
                 70       2.576490   0.0000000   0.2374497   0.0000000   0.0000000   0.0000000
                 71       0.576963   0.0000000   0.0000000   1.0000000   0.0000000   0.0000000
                 72       0.229728   0.0000000   0.0000000   0.0000000   1.0000000   0.0000000
                 73       0.095164   0.0000000   0.0000000   0.0000000   0.0000000   1.0000000

 C #2  1    X   
+                74      34.697232   0.0053334   0.0000000   0.0000000
                 75       7.958262   0.0358641   0.0000000   0.0000000
                 76       2.378083   0.1421587   0.0000000   0.0000000
                 77       0.814332   0.3427047   0.0000000   0.0000000
                 78       0.288875   0.0000000   0.4644582   0.0000000
                 79       0.100568   0.0000000   0.0000000   0.2495579

 C #2  3    X   
+                80      34.697232   0.0053334   0.0000000   0.0000000
                 81       7.958262   0.0358641   0.0000000   0.0000000
                 82       2.378083   0.1421587   0.0000000   0.0000000
                 83       0.814332   0.3427047   0.0000000   0.0000000
                 84       0.288875   0.0000000   0.4644582   0.0000000
                 85       0.100568   0.0000000   0.0000000   0.2495579

 C #2  1    Y   
+                86      34.697232   0.0053334   0.0000000   0.0000000
                 87       7.958262   0.0358641   0.0000000   0.0000000
                 88       2.378083   0.1421587   0.0000000   0.0000000
                 89       0.814332   0.3427047   0.0000000   0.0000000
                 90       0.288875   0.0000000   0.4644582   0.0000000
                 91       0.100568   0.0000000   0.0000000   0.2495579

 C #2  3    Y   
+                92      34.697232   0.0053334   0.0000000   0.0000000
                 93       7.958262   0.0358641   0.0000000   0.0000000
                 94       2.378083   0.1421587   0.0000000   0.0000000
                 95       0.814332   0.3427047   0.0000000   0.0000000
                 96       0.288875   0.0000000   0.4644582   0.0000000
                 97       0.100568   0.0000000   0.0000000   0.2495579

 C #2  1    Z   
+                98      34.697232   0.0053334   0.0000000   0.0000000
                 99       7.958262   0.0358641   0.0000000   0.0000000
                100       2.378083   0.1421587   0.0000000   0.0000000
                101       0.814332   0.3427047   0.0000000   0.0000000
                102       0.288875   0.0000000   0.4644582   0.0000000
                103       0.100568   0.0000000   0.0000000   0.2495579

 C #2  3    Z   
+               104      34.697232   0.0053334   0.0000000   0.0000000
                105       7.958262   0.0358641   0.0000000   0.0000000
                106       2.378083   0.1421587   0.0000000   0.0000000
                107       0.814332   0.3427047   0.0000000   0.0000000
                108       0.288875   0.0000000   0.4644582   0.0000000
                109       0.100568   0.0000000   0.0000000   0.2495579

 C #2  1    XX  
+               110       1.097000   1.0000000   0.0000000
                111       0.318000   0.0000000   1.0000000

 C #2  3    XX  
+               112       1.097000   1.0000000   0.0000000
                113       0.318000   0.0000000   1.0000000

 C #2  1    XY  
+               114       1.097000   1.0000000   0.0000000
                115       0.318000   0.0000000   1.0000000

 C #2  3    XY  
+               116       1.097000   1.0000000   0.0000000
                117       0.318000   0.0000000   1.0000000

 C #2  1    XZ  
+               118       1.097000   1.0000000   0.0000000
                119       0.318000   0.0000000   1.0000000

 C #2  3    XZ  
+               120       1.097000   1.0000000   0.0000000
                121       0.318000   0.0000000   1.0000000

 C #2  1    YY  
+               122       1.097000   1.0000000   0.0000000
                123       0.318000   0.0000000   1.0000000

 C #2  3    YY  
+               124       1.097000   1.0000000   0.0000000
                125       0.318000   0.0000000   1.0000000

 C #2  1    YZ  
+               126       1.097000   1.0000000   0.0000000
                127       0.318000   0.0000000   1.0000000

 C #2  3    YZ  
+               128       1.097000   1.0000000   0.0000000
                129       0.318000   0.0000000   1.0000000

 C #2  1    ZZ  
+               130       1.097000   1.0000000   0.0000000
                131       0.318000   0.0000000   1.0000000

 C #2  3    ZZ  
+               132       1.097000   1.0000000   0.0000000
                133       0.318000   0.0000000   1.0000000

 C #2  1    F300
+               134       0.761000   1.0000000

 C #2  3    F300
+               135       0.761000   1.0000000

 C #2  1    F210
+               136       0.761000   1.0000000

 C #2  3    F210
+               137       0.761000   1.0000000

 C #2  1    F201
+               138       0.761000   1.0000000

 C #2  3    F201
+               139       0.761000   1.0000000

 C #2  1    F120
+               140       0.761000   1.0000000

 C #2  3    F120
+               141       0.761000   1.0000000

 C #2  1    F111
+               142       0.761000   1.0000000

 C #2  3    F111
+               143       0.761000   1.0000000

 C #2  1    F102
+               144       0.761000   1.0000000

 C #2  3    F102
+               145       0.761000   1.0000000

 C #2  1    F030
+               146       0.761000   1.0000000

 C #2  3    F030
+               147       0.761000   1.0000000

 C #2  1    F021
+               148       0.761000   1.0000000

 C #2  3    F021
+               149       0.761000   1.0000000

 C #2  1    F012
+               150       0.761000   1.0000000

 C #2  3    F012
+               151       0.761000   1.0000000

 C #2  1    F003
+               152       0.761000   1.0000000

 C #2  3    F003
+               153       0.761000   1.0000000

 C #3  1    S   
+               154   13575.349682   0.0002225   0.0000000   0.0000000   0.0000000   0.0000000
                155    2035.233368   0.0017233   0.0000000   0.0000000   0.0000000   0.0000000
                156     463.225624   0.0089256   0.0000000   0.0000000   0.0000000   0.0000000
                157     131.200196   0.0357280   0.0000000   0.0000000   0.0000000   0.0000000
                158      42.853016   0.1107626   0.0000000   0.0000000   0.0000000   0.0000000
                159      15.584186   0.2429563   0.0000000   0.0000000   0.0000000   0.0000000
                160       6.206714   0.0000000   0.4144026   0.0000000   0.0000000   0.0000000
                161       2.576490   0.0000000   0.2374497   0.0000000   0.0000000   0.0000000
                162       0.576963   0.0000000   0.0000000   1.0000000   0.0000000   0.0000000
                163       0.229728   0.0000000   0.0000000   0.0000000   1.0000000   0.0000000
                164       0.095164   0.0000000   0.0000000   0.0000000   0.0000000   1.0000000

 C #3  3    S   
+               165   13575.349682   0.0002225   0.0000000   0.0000000   0.0000000   0.0000000
                166    2035.233368   0.0017233   0.0000000   0.0000000   0.0000000   0.0000000
                167     463.225624   0.0089256   0.0000000   0.0000000   0.0000000   0.0000000
                168     131.200196   0.0357280   0.0000000   0.0000000   0.0000000   0.0000000
                169      42.853016   0.1107626   0.0000000   0.0000000   0.0000000   0.0000000
                170      15.584186   0.2429563   0.0000000   0.0000000   0.0000000   0.0000000
                171       6.206714   0.0000000   0.4144026   0.0000000   0.0000000   0.0000000
                172       2.576490   0.0000000   0.2374497   0.0000000   0.0000000   0.0000000
                173       0.576963   0.0000000   0.0000000   1.0000000   0.0000000   0.0000000
                174       0.229728   0.0000000   0.0000000   0.0000000   1.0000000   0.0000000
                175       0.095164   0.0000000   0.0000000   0.0000000   0.0000000   1.0000000

 C #3  1    X   
+               176      34.697232   0.0053334   0.0000000   0.0000000
                177       7.958262   0.0358641   0.0000000   0.0000000
                178       2.378083   0.1421587   0.0000000   0.0000000
                179       0.814332   0.3427047   0.0000000   0.0000000
                180       0.288875   0.0000000   0.4644582   0.0000000
                181       0.100568   0.0000000   0.0000000   0.2495579

 C #3  3    X   
+               182      34.697232   0.0053334   0.0000000   0.0000000
                183       7.958262   0.0358641   0.0000000   0.0000000
                184       2.378083   0.1421587   0.0000000   0.0000000
                185       0.814332   0.3427047   0.0000000   0.0000000
                186       0.288875   0.0000000   0.4644582   0.0000000
                187       0.100568   0.0000000   0.0000000   0.2495579

 C #3  1    Y   
+               188      34.697232   0.0053334   0.0000000   0.0000000
                189       7.958262   0.0358641   0.0000000   0.0000000
                190       2.378083   0.1421587   0.0000000   0.0000000
                191       0.814332   0.3427047   0.0000000   0.0000000
                192       0.288875   0.0000000   0.4644582   0.0000000
                193       0.100568   0.0000000   0.0000000   0.2495579

 C #3  3    Y   
+               194      34.697232   0.0053334   0.0000000   0.0000000
                195       7.958262   0.0358641   0.0000000   0.0000000
                196       2.378083   0.1421587   0.0000000   0.0000000
                197       0.814332   0.3427047   0.0000000   0.0000000
                198       0.288875   0.0000000   0.4644582   0.0000000
                199       0.100568   0.0000000   0.0000000   0.2495579

 C #3  1    Z   
+               200      34.697232   0.0053334   0.0000000   0.0000000
                201       7.958262   0.0358641   0.0000000   0.0000000
                202       2.378083   0.1421587   0.0000000   0.0000000
                203       0.814332   0.3427047   0.0000000   0.0000000
                204       0.288875   0.0000000   0.4644582   0.0000000
                205       0.100568   0.0000000   0.0000000   0.2495579

 C #3  3    Z   
+               206      34.697232   0.0053334   0.0000000   0.0000000
                207       7.958262   0.0358641   0.0000000   0.0000000
                208       2.378083   0.1421587   0.0000000   0.0000000
                209       0.814332   0.3427047   0.0000000   0.0000000
                210       0.288875   0.0000000   0.4644582   0.0000000
                211       0.100568   0.0000000   0.0000000   0.2495579

 C #3  1    XX  
+               212       1.097000   1.0000000   0.0000000
                213       0.318000   0.0000000   1.0000000

 C #3  3    XX  
+               214       1.097000   1.0000000   0.0000000
                215       0.318000   0.0000000   1.0000000

 C #3  1    XY  
+               216       1.097000   1.0000000   0.0000000
                217       0.318000   0.0000000   1.0000000

 C #3  3    XY  
+               218       1.097000   1.0000000   0.0000000
                219       0.318000   0.0000000   1.0000000

 C #3  1    XZ  
+               220       1.097000   1.0000000   0.0000000
                221       0.318000   0.0000000   1.0000000

 C #3  3    XZ  
+               222       1.097000   1.0000000   0.0000000
                223       0.318000   0.0000000   1.0000000

 C #3  1    YY  
+               224       1.097000   1.0000000   0.0000000
                225       0.318000   0.0000000   1.0000000

 C #3  3    YY  
+               226       1.097000   1.0000000   0.0000000
                227       0.318000   0.0000000   1.0000000

 C #3  1    YZ  
+               228       1.097000   1.0000000   0.0000000
                229       0.318000   0.0000000   1.0000000

 C #3  3    YZ  
+               230       1.097000   1.0000000   0.0000000
                231       0.318000   0.0000000   1.0000000

 C #3  1    ZZ  
+               232       1.097000   1.0000000   0.0000000
                233       0.318000   0.0000000   1.0000000

 C #3  3    ZZ  
+               234       1.097000   1.0000000   0.0000000
                235       0.318000   0.0000000   1.0000000

 C #3  1    F300
+               236       0.761000   1.0000000

 C #3  3    F300
+               237       0.761000   1.0000000

 C #3  1    F210
+               238       0.761000   1.0000000

 C #3  3    F210
+               239       0.761000   1.0000000

 C #3  1    F201
+               240       0.761000   1.0000000

 C #3  3    F201
+               241       0.761000   1.0000000

 C #3  1    F120
+               242       0.761000   1.0000000

 C #3  3    F120
+               243       0.761000   1.0000000

 C #3  1    F111
+               244       0.761000   1.0000000

 C #3  3    F111
+               245       0.761000   1.0000000

 C #3  1    F102
+               246       0.761000   1.0000000

 C #3  3    F102
+               247       0.761000   1.0000000

 C #3  1    F030
+               248       0.761000   1.0000000

 C #3  3    F030
+               249       0.761000   1.0000000

 C #3  1    F021
+               250       0.761000   1.0000000

 C #3  3    F021
+               251       0.761000   1.0000000

 C #3  1    F012
+               252       0.761000   1.0000000

 C #3  3    F012
+               253       0.761000   1.0000000

 C #3  1    F003
+               254       0.761000   1.0000000

 C #3  3    F003
+               255       0.761000   1.0000000

 H #4  1    S   
+               256      34.061341   0.0060252   0.0000000   0.0000000
                257       5.123575   0.0450211   0.0000000   0.0000000
                258       1.164663   0.2018973   0.0000000   0.0000000
                259       0.327230   0.0000000   1.0000000   0.0000000
                260       0.103072   0.0000000   0.0000000   1.0000000

 H #4  2    S   
+               261      34.061341   0.0060252   0.0000000   0.0000000
                262       5.123575   0.0450211   0.0000000   0.0000000
                263       1.164663   0.2018973   0.0000000   0.0000000
                264       0.327230   0.0000000   1.0000000   0.0000000
                265       0.103072   0.0000000   0.0000000   1.0000000

 H #4  3    S   
+               266      34.061341   0.0060252   0.0000000   0.0000000
                267       5.123575   0.0450211   0.0000000   0.0000000
                268       1.164663   0.2018973   0.0000000   0.0000000
                269       0.327230   0.0000000   1.0000000   0.0000000
                270       0.103072   0.0000000   0.0000000   1.0000000

 H #4  4    S   
+               271      34.061341   0.0060252   0.0000000   0.0000000
                272       5.123575   0.0450211   0.0000000   0.0000000
                273       1.164663   0.2018973   0.0000000   0.0000000
                274       0.327230   0.0000000   1.0000000   0.0000000
                275       0.103072   0.0000000   0.0000000   1.0000000

 H #4  1    X   
+               276       1.407000   1.0000000   0.0000000
                277       0.388000   0.0000000   1.0000000

 H #4  2    X   
+               278       1.407000   1.0000000   0.0000000
                279       0.388000   0.0000000   1.0000000

 H #4  3    X   
+               280       1.407000   1.0000000   0.0000000
                281       0.388000   0.0000000   1.0000000

 H #4  4    X   
+               282       1.407000   1.0000000   0.0000000
                283       0.388000   0.0000000   1.0000000

 H #4  1    Y   
+               284       1.407000   1.0000000   0.0000000
                285       0.388000   0.0000000   1.0000000

 H #4  2    Y   
+               286       1.407000   1.0000000   0.0000000
                287       0.388000   0.0000000   1.0000000

 H #4  3    Y   
+               288       1.407000   1.0000000   0.0000000
                289       0.388000   0.0000000   1.0000000

 H #4  4    Y   
+               290       1.407000   1.0000000   0.0000000
                291       0.388000   0.0000000   1.0000000

 H #4  1    Z   
+               292       1.407000   1.0000000   0.0000000
                293       0.388000   0.0000000   1.0000000

 H #4  2    Z   
+               294       1.407000   1.0000000   0.0000000
                295       0.388000   0.0000000   1.0000000

 H #4  3    Z   
+               296       1.407000   1.0000000   0.0000000
                297       0.388000   0.0000000   1.0000000

 H #4  4    Z   
+               298       1.407000   1.0000000   0.0000000
                299       0.388000   0.0000000   1.0000000

 H #4  1    XX  
+               300       1.057000   1.0000000

 H #4  2    XX  
+               301       1.057000   1.0000000

 H #4  3    XX  
+               302       1.057000   1.0000000

 H #4  4    XX  
+               303       1.057000   1.0000000

 H #4  1    XY  
+               304       1.057000   1.0000000

 H #4  2    XY  
+               305       1.057000   1.0000000

 H #4  3    XY  
+               306       1.057000   1.0000000

 H #4  4    XY  
+               307       1.057000   1.0000000

 H #4  1    XZ  
+               308       1.057000   1.0000000

 H #4  2    XZ  
+               309       1.057000   1.0000000

 H #4  3    XZ  
+               310       1.057000   1.0000000

 H #4  4    XZ  
+               311       1.057000   1.0000000

 H #4  1    YY  
+               312       1.057000   1.0000000

 H #4  2    YY  
+               313       1.057000   1.0000000

 H #4  3    YY  
+               314       1.057000   1.0000000

 H #4  4    YY  
+               315       1.057000   1.0000000

 H #4  1    YZ  
+               316       1.057000   1.0000000

 H #4  2    YZ  
+               317       1.057000   1.0000000

 H #4  3    YZ  
+               318       1.057000   1.0000000

 H #4  4    YZ  
+               319       1.057000   1.0000000

 H #4  1    ZZ  
+               320       1.057000   1.0000000

 H #4  2    ZZ  
+               321       1.057000   1.0000000

 H #4  3    ZZ  
+               322       1.057000   1.0000000

 H #4  4    ZZ  
+               323       1.057000   1.0000000

 H #5  1    S   
[...]
     Amplitude   Case     Change       Change       i    j    a    b
    -------------------------------------------------------------------
        T1        AA    0.0000000012 0.0000007846    6        20
        T2        AA    0.0000000000 0.0000000224    9    6  103   17
        T2        AB    0.0000000000 0.0000001237    9    9   19   19
    -------------------------------------------------------------------
   The AA contribution to the correlation energy is:   -0.0982577 a.u.
   The AB contribution to the correlation energy is:   -0.7976995 a.u.
   The total correlation energy is -0.994214884981 a.u.
   The total correlation energy is -0.994214884981 a.u.
  Current DIIS expansion coefficients : 
 [   1] 1.0571691038 [   2] 0.0073526721 [   3]-0.0110465147 [   4]-0.1321236093
 [   5] 0.0786483481
  Convergence information after    11 iterations: 
  Largest element of residual vector :  0.78464878E-06.
  Largest element of DIIS residual   :  0.34668695E-06.
  W(mnij) AB contribution =  0.1552920700 a.u.
  W(abef) AB contribution =  0.2230289987 a.u.
  W(mbej) AB contribution = -0.5118900684 a.u.
   After  12 iterations, amplitude changes are:
    -------------------------------------------------------------------
                 Spin      RMS          Max.      Max. change for
     Amplitude   Case     Change       Change       i    j    a    b
    -------------------------------------------------------------------
        T1        AA    0.0000000003 0.0000001488    6        17
        T2        AA    0.0000000000 0.0000000079    9    6  102   20
        T2        AB    0.0000000000-0.0000000380    9    9  160  160
    -------------------------------------------------------------------
   The AA contribution to the correlation energy is:   -0.0982577 a.u.
   The AB contribution to the correlation energy is:   -0.7976996 a.u.
   The total correlation energy is -0.994214958777 a.u.
   The total correlation energy is -0.994214958777 a.u.
  Current DIIS expansion coefficients : 
 [   1]-0.1498124215 [   2] 1.1888136722 [   3] 0.0023480571 [   4] 0.0188273337
 [   5]-0.0601766415
  Convergence information after    12 iterations: 
  Largest element of residual vector :  0.14877967E-06.
  Largest element of DIIS residual   :  0.13940099E-06.
  W(mnij) AB contribution =  0.1552921393 a.u.
  W(abef) AB contribution =  0.2230290734 a.u.
  W(mbej) AB contribution = -0.5118903399 a.u.
   After  13 iterations, amplitude changes are:
    -------------------------------------------------------------------
                 Spin      RMS          Max.      Max. change for
     Amplitude   Case     Change       Change       i    j    a    b
    -------------------------------------------------------------------
        T1        AA    0.0000000001-0.0000000795    9       102
        T2        AA    0.0000000000 0.0000000071    9    6  103   17
        T2        AB    0.0000000000 0.0000000174    9    9  160  160
    -------------------------------------------------------------------
   The AA contribution to the correlation energy is:   -0.0982577 a.u.
   The AB contribution to the correlation energy is:   -0.7976996 a.u.
   The total correlation energy is -0.994214993317 a.u.
   The total correlation energy is -0.994214993317 a.u.
  Current DIIS expansion coefficients : 
 [   1]-0.1722667829 [   2] 0.0938691498 [   3] 1.0656527500 [   4] 0.0140976243
 [   5]-0.0013527411
  Convergence information after    13 iterations: 
  Largest element of residual vector : -0.79489842E-07.
  Largest element of DIIS residual   : -0.38514876E-07.
  W(mnij) AB contribution =  0.1552921721 a.u.
  W(abef) AB contribution =  0.2230291139 a.u.
  W(mbej) AB contribution = -0.5118904705 a.u.
   After  14 iterations, amplitude changes are:
    -------------------------------------------------------------------
                 Spin      RMS          Max.      Max. change for
     Amplitude   Case     Change       Change       i    j    a    b
    -------------------------------------------------------------------
        T1        AA    0.0000000000 0.0000000231    6        20
        T2        AA    0.0000000000 0.0000000011    9    6  102   20
        T2        AB    0.0000000000-0.0000000049    9    9  102  102
    -------------------------------------------------------------------
   The AA contribution to the correlation energy is:   -0.0982577 a.u.
   The AB contribution to the correlation energy is:   -0.7976996 a.u.
   The total correlation energy is -0.994215003676 a.u.
   The total correlation energy is -0.994215003676 a.u.
  Current DIIS expansion coefficients : 
 [   1]-0.0141952862 [   2]-0.0616938572 [   3] 0.0270111326 [   4] 1.0434348007
 [   5] 0.0054432101
  Convergence information after    14 iterations: 
  Largest element of residual vector :  0.23125426E-07.
  Largest element of DIIS residual   :  0.15692660E-07.
  W(mnij) AB contribution =  0.1552921776 a.u.
  W(abef) AB contribution =  0.2230291217 a.u.
  W(mbej) AB contribution = -0.5118904958 a.u.
   After  15 iterations, amplitude changes are:
    -------------------------------------------------------------------
                 Spin      RMS          Max.      Max. change for
     Amplitude   Case     Change       Change       i    j    a    b
    -------------------------------------------------------------------
        T1        AA    0.0000000000-0.0000000078    9       102
        T2        AA    0.0000000000 0.0000000004    9    6  103   17
        T2        AB    0.0000000000 0.0000000019    9    9   17   17
    -------------------------------------------------------------------
   The AA contribution to the correlation energy is:   -0.0982577 a.u.
   The AB contribution to the correlation energy is:   -0.7976996 a.u.
   The total correlation energy is -0.994215006392 a.u.
   The total correlation energy is -0.994215006392 a.u.
  Current DIIS expansion coefficients : 
 [   1] 0.0035000786 [   2] 0.0189902932 [   3]-0.0763575168 [   4]-0.1540996546
 [   5] 1.2079667996
  Convergence information after    15 iterations: 
  Largest element of residual vector : -0.78041668E-08.
  Largest element of DIIS residual   : -0.49841278E-08.
   Largest T1 amplitudes for spin case AA:
   i       a                 i       a                 i       a    
-----------------------------------------------------------------------------
[  9     103    ]-0.01408 [  5      20    ] 0.01144 [  8     103    ]-0.00938
[  7     105    ]-0.00908 [ 16     243    ] 0.00787 [  7     108    ]-0.00786
[ 15     242    ] 0.00762 [  7     106    ]-0.00735 [  9     105    ]-0.00720
[  8     107    ]-0.00712 [  4      23    ]-0.00678 [  9     102    ]-0.00667
[ 12     163    ]-0.00654 [  7     103    ]-0.00644 [ 15     241    ] 0.00625
-----------------------------------------------------------------------------
   Norm of T1AA vector (     1184 symmetry allowed elements):  0.0549461054.
-----------------------------------------------------------------------------
   Largest T2 amplitudes for spin case AB:
       _       _                 _       _                 _       _
   i   j   a   b             i   j   a   b             i   j   a   b
-----------------------------------------------------------------------------
[  5   5 168 168]-0.01204 [  9   9 109 109]-0.01199 [  9   9 108 108]-0.01189
[  5   5  29  29]-0.01185 [  8   8 107 107]-0.01117 [ 13  13 168 168]-0.01080
[ 13   5 168  29] 0.01056 [  5  13  29 168] 0.01056 [ 13   5  29 168] 0.01048
[  5  13 168  29] 0.01048 [ 13  13  29  29]-0.00977 [ 14  14 169 169]-0.00957
[  6   6 169 169]-0.00938 [ 12  12 167 167]-0.00929 [ 15  15 106 106]-0.00921
-----------------------------------------------------------------------------
   Norm of T2AB vector (  4833152 symmetry allowed elements):  0.5105428499.
-----------------------------------------------------------------------------
  W(mnij) AB contribution =  0.1552921770 a.u.
  W(abef) AB contribution =  0.2230291215 a.u.
  W(mbej) AB contribution = -0.5118904956 a.u.
   After  16 iterations, amplitude changes are:
    -------------------------------------------------------------------
                 Spin      RMS          Max.      Max. change for
     Amplitude   Case     Change       Change       i    j    a    b
    -------------------------------------------------------------------
        T1        AA    0.0000000000 0.0000000048    6        20
        T2        AA    0.0000000000 0.0000000001    9    6  102   27
        T2        AB    0.0000000000-0.0000000009    9    9   17   17
    -------------------------------------------------------------------
   The AA contribution to the correlation energy is:   -0.0982577 a.u.
   The AB contribution to the correlation energy is:   -0.7976996 a.u.
   The total correlation energy is -0.994215006780 a.u.
   The total correlation energy is -0.994215006780 a.u.
  Current DIIS expansion coefficients : 
 [   1] 1.0023255145 [   2] 0.0105739549 [   3]-0.0138956330 [   4]-0.1615947900
 [   5] 0.1625909536
  Convergence information after    16 iterations: 
  Largest element of residual vector :  0.48407938E-08.
  Largest element of DIIS residual   :  0.25471720E-08.
  W(mnij) AB contribution =  0.1552921768 a.u.
  W(abef) AB contribution =  0.2230291214 a.u.
  W(mbej) AB contribution = -0.5118904952 a.u.
   After  17 iterations, amplitude changes are:
    -------------------------------------------------------------------
                 Spin      RMS          Max.      Max. change for
     Amplitude   Case     Change       Change       i    j    a    b
    -------------------------------------------------------------------
        T1        AA    0.0000000000 0.0000000015    6        20
        T2        AA    0.0000000000 0.0000000001    9    6  103   20
        T2        AB    0.0000000000 0.0000000004    9    9  158  158
    -------------------------------------------------------------------
   The AA contribution to the correlation energy is:   -0.0982577 a.u.
   The AB contribution to the correlation energy is:   -0.7976996 a.u.
   The total correlation energy is -0.994215006707 a.u.
   The total correlation energy is -0.994215006707 a.u.
  Current DIIS expansion coefficients : 
 [   1]-0.0303218181 [   2] 1.0906665934 [   3] 0.0008628382 [   4] 0.0014757916
 [   5]-0.0626834051
  Convergence information after    17 iterations: 
  Largest element of residual vector :  0.15445542E-08.
  Largest element of DIIS residual   :  0.12420290E-08.
  W(mnij) AB contribution =  0.1552921766 a.u.
  W(abef) AB contribution =  0.2230291211 a.u.
  W(mbej) AB contribution = -0.5118904942 a.u.
   After  18 iterations, amplitude changes are:
    -------------------------------------------------------------------
                 Spin      RMS          Max.      Max. change for
     Amplitude   Case     Change       Change       i    j    a    b
    -------------------------------------------------------------------
        T1        AA    0.0000000000 0.0000000007    6        20
        T2        AA    0.0000000000 0.0000000000    9    6  108   20
        T2        AB    0.0000000000-0.0000000002    9    9  158  158
    -------------------------------------------------------------------
   The AA contribution to the correlation energy is:   -0.0982577 a.u.
   The AB contribution to the correlation energy is:   -0.7976996 a.u.
   The total correlation energy is -0.994215006652 a.u.
   The total correlation energy is -0.994215006652 a.u.
  Current DIIS expansion coefficients : 
 [   1]-0.1550754985 [   2]-0.0622731267 [   3] 1.1923793546 [   4] 0.0160190024
 [   5] 0.0089502682
  Convergence information after    18 iterations: 
  Largest element of residual vector :  0.66067299E-09.
  Largest element of DIIS residual   :  0.36821589E-09.
  Amplitude equations converged in    18iterations.
   The AA contribution to the correlation energy is:   -0.0982577 a.u.
   The AB contribution to the correlation energy is:   -0.7976996 a.u.
   The total correlation energy is -0.994215006578 a.u.
   The total correlation energy is -0.994215006578 a.u.
   The CC iterations have converged.

   Largest T1 amplitudes for spin case AA:
   i       a                 i       a                 i       a    
-----------------------------------------------------------------------------
[  9     103    ]-0.01408 [  5      20    ] 0.01144 [  8     103    ]-0.00938
[  7     105    ]-0.00908 [ 16     243    ] 0.00787 [  7     108    ]-0.00786
[ 15     242    ] 0.00762 [  7     106    ]-0.00735 [  9     105    ]-0.00720
[  8     107    ]-0.00712 [  4      23    ]-0.00678 [  9     102    ]-0.00667
[ 12     163    ]-0.00654 [  7     103    ]-0.00644 [ 15     241    ] 0.00625
-----------------------------------------------------------------------------
   Norm of T1AA vector (     1184 symmetry allowed elements):  0.0549461081.
-----------------------------------------------------------------------------
   Largest T2 amplitudes for spin case AB:
       _       _                 _       _                 _       _
   i   j   a   b             i   j   a   b             i   j   a   b
-----------------------------------------------------------------------------
[  5   5 168 168]-0.01204 [  9   9 109 109]-0.01199 [  9   9 108 108]-0.01189
[  5   5  29  29]-0.01185 [  8   8 107 107]-0.01117 [ 13  13 168 168]-0.01080
[ 13   5 168  29] 0.01056 [  5  13  29 168] 0.01056 [ 13   5  29 168] 0.01048
[  5  13 168  29] 0.01048 [ 13  13  29  29]-0.00977 [ 14  14 169 169]-0.00957
[  6   6 169 169]-0.00938 [ 12  12 167 167]-0.00929 [ 15  15 106 106]-0.00921
-----------------------------------------------------------------------------
   Norm of T2AB vector (  4833152 symmetry allowed elements):  0.5105428492.
-----------------------------------------------------------------------------
       Summary of iterative solution of CC equations 
      -----------------------------------------------------------
                       Correlation           Total
       Iteration         Energy              Energy
      -----------------------------------------------------------
            0        -0.943090565637    -233.183274889690  DIIS 
            1        -0.967833578645    -233.208017902698  DIIS 
            2        -0.989735771762    -233.229920095815  DIIS 
            3        -0.991764728866    -233.231949052919  DIIS 
            4        -0.993942817104    -233.234127141157  DIIS 
            5        -0.994194217831    -233.234378541884  DIIS 
            6        -0.994211471591    -233.234395795644  DIIS 
            7        -0.994214666430    -233.234398990483  DIIS 
            8        -0.994215346322    -233.234399670375  DIIS 
            9        -0.994214347166    -233.234398671219  DIIS 
           10        -0.994214832303    -233.234399156356  DIIS 
           11        -0.994214884981    -233.234399209034  DIIS 
           12        -0.994214958777    -233.234399282830  DIIS 
           13        -0.994214993317    -233.234399317370  DIIS 
           14        -0.994215003676    -233.234399327728  DIIS 
           15        -0.994215006392    -233.234399330445  DIIS 
           16        -0.994215006780    -233.234399330833  DIIS 
           17        -0.994215006707    -233.234399330760  DIIS 
           18        -0.994215006578    -233.234399330631  DIIS 
      -----------------------------------------------------------
      A miracle has come to pass. The CC iterations have converged.
 @DIMT3-I, Dimensions of T3 amplitudes : 
               # abc          # ijk       Symmetry    Spin 
                   852840            134     1          1
                   842168            139     2          1
                   853480            141     3          1
                   842536            146     4          1
                  2581725            492     1          2
                  2541792            462     2          2
                  2582280            498     3          2
                  2542077            468     4          2
                  2581725            492     1          3
                  2541792            462     2          3
                  2582280            498     3          3
                  2542077            468     4          3
                   852840            134     1          4
                   842168            139     2          4
                   853480            141     3          4
                   842536            146     4          4
 @DIMT3-I, Dimensions of T3 amplitudes : 
               # abc          # ijk       Symmetry    Spin 
                   852840            134     1          1
                   842168            139     2          1
                   853480            141     3          1
                   842536            146     4          1
                  2581725            492     1          2
                  2541792            462     2          2
                  2582280            498     3          2
                  2542077            468     4          2
                  2581725            492     1          3
                  2541792            462     2          3
                  2582280            498     3          3
                  2542077            468     4          3
                   852840            134     1          4
                   842168            139     2          4
                   853480            141     3          4
                   842536            146     4          4
 @TRPS-I, Welcome to TRPS. Watch your RUs ! 
 @TRPS-I, Method is CCSD(T) 
 @TRPS-I, Calculation type is energy 
 @TRPS-I, Reference function information : 
          Reference function is Hartree-Fock 
          Reference function is RHF Hartree-Fock 
 @TRPS-I, INT1 is true 
 @TRPS-I, INT2 is false 
 @TRPS-I, Lengths of ijka integrals. #1     132336
                                     #2     132336
                                     #3     283616
                                     #4     283616
                                    Max     283616
 @INITRP-I, Initializing W intermediate lists. 
 @SETOOOV-I, Some OOOV lists are being transposed. 
 @TRPS-I, Available memory in integer words   1499959040
          Number of pre-allocated words for TRPS2      1320885
          Number of free words for TRPS2   1498638155
 @TRPS2-I, Spin case AAB 
 @TRPS2-I, Number of free integer words 1498638155
           Number of free double  words 1498638155
           Ratio                                 1
 @TRPS2-I, E4TBAA      -0.018125397553
  @TRPS2-I, E4TAAA  -1.057161996984391E-003
 @TRPS2-I, E5ST A    0.000359187135933
 @TRPS2-I, E5ST B    0.000232238443049
 @SETOOOV-I, Some OOOV lists are being transposed. 
 @CCENRG-I, CCSD/QCISD energy will now be evaluated. 
 @CCENRG-I, Correlation energies. ECCAA       -0.098257681565
                                  ECCBB        0.000000000000
                                  ECCAB       -0.797699643448
                                  Total       -0.994215006578
 @CCENRG-I, Reference   energy    -232.240184324053
            CCSD/QCISD energy     -233.234399330631
          E4T (T(CCSD)) = -0.038365119099
          E5ST          =  0.001182851158
          E4ST          =  0.000000000000
          In other words  
          <T3[2](Dagger) D3  T3[2]> = -0.038365119099
          <T1   (Dagger) Q1 WT3[2]> =  0.001182851158
          <T2   (Dagger) Q2 FT3[2]> =  0.000000000000
        E(CCSD)           =    -233.234399330631
        E(CCSD + T(CCSD)) =    -233.272764449731
        E(CCSD(T))        =    -233.271581598573
  @CHECKOUT-I, Total execution time (CPU/WALL):     1148.87/    1598.60 seconds.
--executable xvcc finished with status     0 in     1598.97 seconds (walltime).
  The final electronic energy is      -233.271581598572880 a.u. 
  This computation required                         3041.81 seconds (walltime).
