 **********************************************************************
                          MRCC program system
 **********************************************************************
 
                              Written by
    Mihaly Kallay, Zoltan Rolik, Jozsef Csontos, Istvan Ladjanszki,
       Lorant Szegedy, Bence Ladoczki, Gyula Samu, Klara Petrov,
        Mate Farkas, Peter Nagy, David Mester, and Bence Hegely
 
        Department of Physical Chemistry and Materials Science
            Budapest University of Technology and Economics
                  Budapest P.O.Box 91, H-1521 Hungary
 
                              www.mrcc.hu

 ************************ 2017-11-12 21:40:08 *************************
 Executing minp...

 Reading input from MINP...
 
 Input file:
 
# TITLE
basis=cc-pV10Z-trunc
uncontract=off
#iface=cfour
itol=18
scftol=16
cctol=7
calc=SCF
mem=22GB
core=corr
ccmaxit=999
scfmaxit=9999
scftype=ROHF

scfiguess=restart
rohftype=standard
mult=2
charge=+0
rest=2

geom
H

 
 
 Checking keyword combinations...
 
 Keywords:
 
 active=none
 agrid=ld0006-ld0590
 basis=cc-pv10z-trunc
 basopt=off
 bpcompo=0.985
 bpcompv=0.98
 bpdfo=0.985
 bpocc=0.985
 bppdo=0.985
 bppdv=0.98
 bpedo=0.985
 bpedv=0.98
 calc=scf
 ccmaxit=999
 ccprog=mrcc
 cctol=7
 charge=+0
 cialg=disk
 ciguess=off
 cmpgrp=auto
 core=corr
 corembed=off
 dboc=off
 dendec=cholesky
 dens=0
 dfalg=invsqrt
 dfbasis_cor=none
 dfbasis_scf=none
 dfintran=ovirt
 dft=off
 diag=david
 domrad=10.d0
 drpaalg=fit
 ecp=auto
 edisp=off
 embed=off
 epert=none
 eps=0.975
 excrad=0.d0
 excrad_fin=0.000000000D+00
 freq=off
 gauss=spher
 geom=zmat
 gopt=off
 ghost=none
 gtol=7
 grtol=10
 hamilton=dc
 iface=none
 intalg=auto
 itol=18
 lcorthr=loose
 lccrest=off
 lmp2dens=on
 lnoepso=3e-5
 lnoepsv=1e-6
 localcc=off
 locintrf=disk
 maxact=off
 maxex=0
 bfbasis=none
 mem=22gb
 molden=on
 mulmet=0
 mult=2
 nacto=0
 nactv=0
 naf_cor=off
 naf_scf=off
 nafalg=albe
 naftyp=
 nchol=auto
 ndeps=1e-3
 nstate=1
 nsing=0
 ntrip=0
 occ=
 optalg=
 optmaxit=50
 optetol=1e-6
 optgtol=1e-4
 optstol=1e-3
 orblocc=off
 orbloco=off
 orblocv=off
 osveps=1e-3
 ovirt=off
 ovosnorb=80.0
 ptfreq=0.0
 popul=off
 pressure=100000
 qmmm=off
 refdet=none
 rest=2
 rgrid=log3
 rohftype=standard
 scspe=1.d0
 scsps=1.2d0
 scspt=0.33333333333333
 scfalg=auto
 scfdamp=off
 scfdiis=on
 scfdiis_end=9999
 scfdiis_start=1
 scfdiis_step=1
 scfdtol=17
 scfext=10
 scfiguess=restart
 scflshift=off
 scfmaxit=9999
 scftype=rohf
 scftol=16
 spairtol=1e-4
 symm=
 talg=occ
 temp=298.15
 test=off
 tprint=off
 uncontract=off
 unit=angs
 verbosity=2
 wpairtol=0.100000000E-05

 ************************ 2017-11-12 21:40:09 *************************
 Executing integ...

 Allocation of 22.0 Gbytes of memory...
 
 Number of atoms:            1
 Charge:                     0
 Number of electrons:        1
 Number of core electrons:   0
 Spin multiplicity:          2
 
                 Cartesian coordinates [bohr]      Atomic mass [AMU]  Z
   1  H     0.00000000    0.00000000    0.00000000     1.007825       1
 
 This molecule is a spherical top.
 
 Rotational constants [cm-1]: 

 
 Point group: Dxh 
 Computational point group: D2h 
 
 Cartesian coordinates in standard orientation [bohr]
   1  H     0.00000000    0.00000000    0.00000000
 
 Nuclear repulsion energy [au]:          0.000000000000
 
 
 Basis set information:
 
 Maximum angular momentum: l
 Maximum number of contracted Gaussians:   10
 Maximum number of primitive Gaussians:    19
 Spherical harmonic GTOs are used.
 
 
 Conventional basis set:
 
    1  H  cc-pv10z-trunc [ 19s 9p 8d 7f 6g 5h 4i 3k 2l | 10s 9p 8d 7f 6g 5h 4i 3
 k 2l ]
 
 Total number of basis functions:   366
 
 
 Character table for point group D2h:
 
          E  C2z C2y C2x  i  Qxy Qxz Qyz 
    Ag    1   1   1   1   1   1   1   1
    B1g   1   1  -1  -1   1   1  -1  -1
    B2g   1  -1   1  -1   1  -1   1  -1
    B3g   1  -1  -1   1   1  -1  -1   1
    Au    1   1   1   1  -1  -1  -1  -1
    B1u   1   1  -1  -1  -1  -1   1   1
    B2u   1  -1   1  -1  -1   1  -1   1
    B3u   1  -1  -1   1  -1   1   1  -1
 
 Number of basis functions per irrep:
    Ag     70
    B1g    40
    B2g    40
    B3g    40
    Au     26
    B1u    50
    B2u    50
    B3u    50
 
 
 Calculation of overlap integrals...
 CPU time [min]:     0.050                   Wall time [min]:     0.069
 Calculation of kinetic energy integrals...
 CPU time [min]:     0.087                   Wall time [min]:     0.070
 Calculation of nuclear attraction integrals...
 CPU time [min]:     0.126                   Wall time [min]:     0.072
 
 Calculation of prescreening integrals...
 CPU time [min]:     5.960                   Wall time [min]:     1.055
 
 Calculation of two-electron integrals...
   1% done.
  17% done.
  38% done.
  68% done.
 100% done.
 CPU time [min]:   144.965                   Wall time [min]:    21.247

 ************************ 2017-11-12 22:01:27 *************************
 Executing scf...

 Allocation of 22.0 Gbytes of memory...
 ======================================================================
 ITERATION STEP   1
 CPU time [min]:     0.050                   Wall time [min]:     0.023
 
 ALPHA OCC:   1   0   0   0   0   0   0   0
 BETA  OCC:   0   0   0   0   0   0   0   0
 ***HARTREE-FOCK ENERGY IN STEP   1 IS      -0.4999999806582734 [AU]
 ======================================================================
 ITERATION STEP   2
 CPU time [min]:     0.458                   Wall time [min]:     1.619
 
 ALPHA OCC:   1   0   0   0   0   0   0   0
 BETA  OCC:   0   0   0   0   0   0   0   0
 ***HARTREE-FOCK ENERGY IN STEP   2 IS      -0.4999999806582813 [AU]
 ======================================================================
 ITERATION STEP   3
 CPU time [min]:     0.786                   Wall time [min]:     1.835
 
 ALPHA OCC:   1   0   0   0   0   0   0   0
 BETA  OCC:   0   0   0   0   0   0   0   0
 ***HARTREE-FOCK ENERGY IN STEP   3 IS      -0.4999999806582694 [AU]
 ======================================================================
 ITERATION STEP   4
 CPU time [min]:     1.114                   Wall time [min]:     2.036
 
 ALPHA OCC:   1   0   0   0   0   0   0   0
 BETA  OCC:   0   0   0   0   0   0   0   0
 ***HARTREE-FOCK ENERGY IN STEP   4 IS      -0.4999999806582757 [AU]
 ======================================================================
 ITERATION STEP   5
 CPU time [min]:     1.429                   Wall time [min]:     2.237
 
 ALPHA OCC:   1   0   0   0   0   0   0   0
 BETA  OCC:   0   0   0   0   0   0   0   0
 ***HARTREE-FOCK ENERGY IN STEP   5 IS      -0.4999999806582794 [AU]
 ======================================================================
 ITERATION STEP   6
 CPU time [min]:     1.729                   Wall time [min]:     2.437
 
 ALPHA OCC:   1   0   0   0   0   0   0   0
 BETA  OCC:   0   0   0   0   0   0   0   0
 ***HARTREE-FOCK ENERGY IN STEP   6 IS      -0.4999999806582734 [AU]
 ======================================================================
 ITERATION STEP   7
 CPU time [min]:     2.076                   Wall time [min]:     2.638
 
 ALPHA OCC:   1   0   0   0   0   0   0   0
 BETA  OCC:   0   0   0   0   0   0   0   0
 ***HARTREE-FOCK ENERGY IN STEP   7 IS      -0.4999999806582888 [AU]
 ======================================================================
 ITERATION STEP   8
 CPU time [min]:     2.419                   Wall time [min]:     2.838
 
 ALPHA OCC:   1   0   0   0   0   0   0   0
 BETA  OCC:   0   0   0   0   0   0   0   0
 ***HARTREE-FOCK ENERGY IN STEP   8 IS      -0.4999999806582882 [AU]
 ======================================================================
 ITERATION STEP   9
 CPU time [min]:     2.757                   Wall time [min]:     3.038
 
 ALPHA OCC:   1   0   0   0   0   0   0   0
 BETA  OCC:   0   0   0   0   0   0   0   0
 ***HARTREE-FOCK ENERGY IN STEP   9 IS      -0.4999999806582824 [AU]
 ======================================================================
 ITERATION STEP  10
 CPU time [min]:     3.094                   Wall time [min]:     3.239
 
 ALPHA OCC:   1   0   0   0   0   0   0   0
 BETA  OCC:   0   0   0   0   0   0   0   0
 ***HARTREE-FOCK ENERGY IN STEP  10 IS      -0.4999999806582745 [AU]
 ======================================================================
 ITERATION STEP  11
 CPU time [min]:     3.414                   Wall time [min]:     3.439
 
 ALPHA OCC:   1   0   0   0   0   0   0   0
 BETA  OCC:   0   0   0   0   0   0   0   0
 ***HARTREE-FOCK ENERGY IN STEP  11 IS      -0.4999999806582875 [AU]
 ======================================================================
 ITERATION STEP  12
 CPU time [min]:     3.734                   Wall time [min]:     3.640
 
 ALPHA OCC:   1   0   0   0   0   0   0   0
 BETA  OCC:   0   0   0   0   0   0   0   0
 ***HARTREE-FOCK ENERGY IN STEP  12 IS      -0.4999999806582682 [AU]
 ======================================================================
 ITERATION STEP  13
 CPU time [min]:     4.050                   Wall time [min]:     3.840
 
 ALPHA OCC:   1   0   0   0   0   0   0   0
 BETA  OCC:   0   0   0   0   0   0   0   0
 ***HARTREE-FOCK ENERGY IN STEP  13 IS      -0.4999999806582773 [AU]
 ======================================================================
 ITERATION STEP  14
 CPU time [min]:     4.427                   Wall time [min]:     4.046
 
 ALPHA OCC:   1   0   0   0   0   0   0   0
 BETA  OCC:   0   0   0   0   0   0   0   0
 ***HARTREE-FOCK ENERGY IN STEP  14 IS      -0.4999999806582871 [AU]
 ======================================================================
 ITERATION STEP  15
 CPU time [min]:     4.728                   Wall time [min]:     4.251
 
 ALPHA OCC:   1   0   0   0   0   0   0   0
 BETA  OCC:   0   0   0   0   0   0   0   0
 ***HARTREE-FOCK ENERGY IN STEP  15 IS      -0.4999999806582741 [AU]
 ======================================================================
 ITERATION STEP  16
 CPU time [min]:     5.027                   Wall time [min]:     4.451
 
 ALPHA OCC:   1   0   0   0   0   0   0   0
 BETA  OCC:   0   0   0   0   0   0   0   0
 ***HARTREE-FOCK ENERGY IN STEP  16 IS      -0.4999999806582746 [AU]
 ======================================================================
 ITERATION STEP  17
 CPU time [min]:     5.332                   Wall time [min]:     4.652
 
 ALPHA OCC:   1   0   0   0   0   0   0   0
 BETA  OCC:   0   0   0   0   0   0   0   0
 ***HARTREE-FOCK ENERGY IN STEP  17 IS      -0.4999999806582859 [AU]
 ======================================================================
 ITERATION STEP  18
 CPU time [min]:     5.684                   Wall time [min]:     4.861
 
 ALPHA OCC:   1   0   0   0   0   0   0   0
 BETA  OCC:   0   0   0   0   0   0   0   0
 ***HARTREE-FOCK ENERGY IN STEP  18 IS      -0.4999999806582731 [AU]
 ======================================================================
 ITERATION STEP  19
 CPU time [min]:     5.988                   Wall time [min]:     5.069
 
 ALPHA OCC:   1   0   0   0   0   0   0   0
 BETA  OCC:   0   0   0   0   0   0   0   0
 ***HARTREE-FOCK ENERGY IN STEP  19 IS      -0.4999999806582738 [AU]
 ======================================================================
 ITERATION STEP  20
 CPU time [min]:     6.327                   Wall time [min]:     5.277
 
 ALPHA OCC:   1   0   0   0   0   0   0   0
 BETA  OCC:   0   0   0   0   0   0   0   0
 ***HARTREE-FOCK ENERGY IN STEP  20 IS      -0.4999999806582742 [AU]
 ======================================================================
 ITERATION STEP  21
 CPU time [min]:     6.650                   Wall time [min]:     5.485
 
 ALPHA OCC:   1   0   0   0   0   0   0   0
 BETA  OCC:   0   0   0   0   0   0   0   0
 ***HARTREE-FOCK ENERGY IN STEP  21 IS      -0.4999999806582670 [AU]
 ======================================================================
 ITERATION STEP  22
 CPU time [min]:     6.954                   Wall time [min]:     5.693
 
 ALPHA OCC:   1   0   0   0   0   0   0   0
 BETA  OCC:   0   0   0   0   0   0   0   0
 ***HARTREE-FOCK ENERGY IN STEP  22 IS      -0.4999999806582789 [AU]
 ======================================================================
 ITERATION STEP  23
 CPU time [min]:     7.293                   Wall time [min]:     5.901
 
 ALPHA OCC:   1   0   0   0   0   0   0   0
 BETA  OCC:   0   0   0   0   0   0   0   0
 ***HARTREE-FOCK ENERGY IN STEP  23 IS      -0.4999999806582879 [AU]
 ======================================================================
 ITERATION STEP  24
 CPU time [min]:     7.606                   Wall time [min]:     6.109
 
 ALPHA OCC:   1   0   0   0   0   0   0   0
 BETA  OCC:   0   0   0   0   0   0   0   0
 ***HARTREE-FOCK ENERGY IN STEP  24 IS      -0.4999999806582849 [AU]
 ======================================================================
 ITERATION STEP  25
 CPU time [min]:     7.954                   Wall time [min]:     6.317
 
 ALPHA OCC:   1   0   0   0   0   0   0   0
 BETA  OCC:   0   0   0   0   0   0   0   0
 ***HARTREE-FOCK ENERGY IN STEP  25 IS      -0.4999999806582758 [AU]
 ======================================================================
 ITERATION STEP  26
 CPU time [min]:     8.284                   Wall time [min]:     6.525
 
 ALPHA OCC:   1   0   0   0   0   0   0   0
 BETA  OCC:   0   0   0   0   0   0   0   0
 ***HARTREE-FOCK ENERGY IN STEP  26 IS      -0.4999999806582635 [AU]
 ======================================================================
 ITERATION STEP  27
 CPU time [min]:     8.592                   Wall time [min]:     6.733
 
 ALPHA OCC:   1   0   0   0   0   0   0   0
 BETA  OCC:   0   0   0   0   0   0   0   0
 ***HARTREE-FOCK ENERGY IN STEP  27 IS      -0.4999999806582683 [AU]
 ======================================================================
 ITERATION STEP  28
 CPU time [min]:     8.940                   Wall time [min]:     6.941
 
 ALPHA OCC:   1   0   0   0   0   0   0   0
 BETA  OCC:   0   0   0   0   0   0   0   0
 ***HARTREE-FOCK ENERGY IN STEP  28 IS      -0.4999999806582860 [AU]
 ======================================================================
 ITERATION STEP  29
 CPU time [min]:     9.294                   Wall time [min]:     7.151
 
 ALPHA OCC:   1   0   0   0   0   0   0   0
 BETA  OCC:   0   0   0   0   0   0   0   0
 ***HARTREE-FOCK ENERGY IN STEP  29 IS      -0.4999999806582607 [AU]
 ======================================================================
 ITERATION STEP  30
 CPU time [min]:     9.620                   Wall time [min]:     7.359
 
 ALPHA OCC:   1   0   0   0   0   0   0   0
 BETA  OCC:   0   0   0   0   0   0   0   0
 ***HARTREE-FOCK ENERGY IN STEP  30 IS      -0.4999999806582687 [AU]
 ======================================================================
 ITERATION STEP  31
 CPU time [min]:     9.957                   Wall time [min]:     7.572
 
 ALPHA OCC:   1   0   0   0   0   0   0   0
 BETA  OCC:   0   0   0   0   0   0   0   0
 ***HARTREE-FOCK ENERGY IN STEP  31 IS      -0.4999999806582789 [AU]
 ======================================================================
 ITERATION STEP  32
 CPU time [min]:    10.302                   Wall time [min]:     7.784
 
 ALPHA OCC:   1   0   0   0   0   0   0   0
 BETA  OCC:   0   0   0   0   0   0   0   0
 ***HARTREE-FOCK ENERGY IN STEP  32 IS      -0.4999999806582687 [AU]
 ======================================================================
 ITERATION STEP  33
 CPU time [min]:    10.629                   Wall time [min]:     7.992
 
 ALPHA OCC:   1   0   0   0   0   0   0   0
 BETA  OCC:   0   0   0   0   0   0   0   0
 ***HARTREE-FOCK ENERGY IN STEP  33 IS      -0.4999999806582762 [AU]
 ======================================================================
 ITERATION STEP  34
 CPU time [min]:    10.944                   Wall time [min]:     8.200
 
 ALPHA OCC:   1   0   0   0   0   0   0   0
 BETA  OCC:   0   0   0   0   0   0   0   0
 ***HARTREE-FOCK ENERGY IN STEP  34 IS      -0.4999999806582859 [AU]
 ======================================================================
 ITERATION STEP  35
 CPU time [min]:    11.307                   Wall time [min]:     8.422
 
 ALPHA OCC:   1   0   0   0   0   0   0   0
 BETA  OCC:   0   0   0   0   0   0   0   0
 ***HARTREE-FOCK ENERGY IN STEP  35 IS      -0.4999999806582935 [AU]
 ======================================================================
 ITERATION STEP  36
 CPU time [min]:    11.650                   Wall time [min]:     8.638
 
 ALPHA OCC:   1   0   0   0   0   0   0   0
 BETA  OCC:   0   0   0   0   0   0   0   0
 ***HARTREE-FOCK ENERGY IN STEP  36 IS      -0.4999999806582867 [AU]
 ======================================================================
 ITERATION STEP  37
 CPU time [min]:    11.985                   Wall time [min]:     8.845
 
 ALPHA OCC:   1   0   0   0   0   0   0   0
 BETA  OCC:   0   0   0   0   0   0   0   0
 ***HARTREE-FOCK ENERGY IN STEP  37 IS      -0.4999999806582922 [AU]
 ======================================================================
 ITERATION STEP  38
 CPU time [min]:    12.315                   Wall time [min]:     9.052
 
 ALPHA OCC:   1   0   0   0   0   0   0   0
 BETA  OCC:   0   0   0   0   0   0   0   0
 ***HARTREE-FOCK ENERGY IN STEP  38 IS      -0.4999999806582841 [AU]
 ======================================================================
 ITERATION STEP  39
 CPU time [min]:    12.646                   Wall time [min]:     9.260
 
 ALPHA OCC:   1   0   0   0   0   0   0   0
 BETA  OCC:   0   0   0   0   0   0   0   0
 ***HARTREE-FOCK ENERGY IN STEP  39 IS      -0.4999999806582905 [AU]
 ======================================================================
 ITERATION STEP  40
 CPU time [min]:    12.993                   Wall time [min]:     9.469
 
 ALPHA OCC:   1   0   0   0   0   0   0   0
 BETA  OCC:   0   0   0   0   0   0   0   0
 ***HARTREE-FOCK ENERGY IN STEP  40 IS      -0.4999999806582833 [AU]
 ======================================================================
 ITERATION STEP  41
 CPU time [min]:    13.326                   Wall time [min]:     9.677
 
 ALPHA OCC:   1   0   0   0   0   0   0   0
 BETA  OCC:   0   0   0   0   0   0   0   0
 ***HARTREE-FOCK ENERGY IN STEP  41 IS      -0.4999999806582842 [AU]
 ======================================================================
 ITERATION STEP  42
 CPU time [min]:    13.715                   Wall time [min]:     9.904
 
 ALPHA OCC:   1   0   0   0   0   0   0   0
 BETA  OCC:   0   0   0   0   0   0   0   0
 ***HARTREE-FOCK ENERGY IN STEP  42 IS      -0.4999999806582875 [AU]
 ======================================================================
 ITERATION STEP  43
 CPU time [min]:    14.064                   Wall time [min]:    10.119
 
 ALPHA OCC:   1   0   0   0   0   0   0   0
 BETA  OCC:   0   0   0   0   0   0   0   0
 ***HARTREE-FOCK ENERGY IN STEP  43 IS      -0.4999999806582761 [AU]
 ======================================================================
 ITERATION STEP  44
 CPU time [min]:    14.410                   Wall time [min]:    10.328
 
 ALPHA OCC:   1   0   0   0   0   0   0   0
 BETA  OCC:   0   0   0   0   0   0   0   0
 ***HARTREE-FOCK ENERGY IN STEP  44 IS      -0.4999999806582918 [AU]
 ======================================================================
 ITERATION STEP  45
 CPU time [min]:    14.761                   Wall time [min]:    10.535
 
 ALPHA OCC:   1   0   0   0   0   0   0   0
 BETA  OCC:   0   0   0   0   0   0   0   0
 ***HARTREE-FOCK ENERGY IN STEP  45 IS      -0.4999999806582804 [AU]
 ======================================================================
 ITERATION STEP  46
 CPU time [min]:    15.135                   Wall time [min]:    10.753
 
 ALPHA OCC:   1   0   0   0   0   0   0   0
 BETA  OCC:   0   0   0   0   0   0   0   0
 ***HARTREE-FOCK ENERGY IN STEP  46 IS      -0.4999999806582769 [AU]
 ======================================================================
 ITERATION STEP  47
 CPU time [min]:    15.523                   Wall time [min]:    10.974
 
 ALPHA OCC:   1   0   0   0   0   0   0   0
 BETA  OCC:   0   0   0   0   0   0   0   0
 ***HARTREE-FOCK ENERGY IN STEP  47 IS      -0.4999999806582598 [AU]
 ======================================================================
 ITERATION STEP  48
 CPU time [min]:    15.897                   Wall time [min]:    11.183
 
 ALPHA OCC:   1   0   0   0   0   0   0   0
 BETA  OCC:   0   0   0   0   0   0   0   0
 ***HARTREE-FOCK ENERGY IN STEP  48 IS      -0.4999999806582950 [AU]
 ======================================================================
 ITERATION STEP  49
 CPU time [min]:    16.239                   Wall time [min]:    11.390
 
 ALPHA OCC:   1   0   0   0   0   0   0   0
 BETA  OCC:   0   0   0   0   0   0   0   0
 ***HARTREE-FOCK ENERGY IN STEP  49 IS      -0.4999999806582793 [AU]
 ======================================================================
 ITERATION STEP  50
 CPU time [min]:    16.556                   Wall time [min]:    11.598
 
 ALPHA OCC:   1   0   0   0   0   0   0   0
 BETA  OCC:   0   0   0   0   0   0   0   0
 ***HARTREE-FOCK ENERGY IN STEP  50 IS      -0.4999999806582694 [AU]
 ======================================================================
 ITERATION STEP  51
 CPU time [min]:    16.914                   Wall time [min]:    11.815
 
 ALPHA OCC:   1   0   0   0   0   0   0   0
 BETA  OCC:   0   0   0   0   0   0   0   0
 ***HARTREE-FOCK ENERGY IN STEP  51 IS      -0.4999999806582648 [AU]
 ======================================================================
 ITERATION STEP  52
 CPU time [min]:    17.277                   Wall time [min]:    12.026
 
 ALPHA OCC:   1   0   0   0   0   0   0   0
 BETA  OCC:   0   0   0   0   0   0   0   0
 ***HARTREE-FOCK ENERGY IN STEP  52 IS      -0.4999999806582726 [AU]
 ======================================================================
 ITERATION STEP  53
 CPU time [min]:    17.632                   Wall time [min]:    12.245
 
 ALPHA OCC:   1   0   0   0   0   0   0   0
 BETA  OCC:   0   0   0   0   0   0   0   0
 ***HARTREE-FOCK ENERGY IN STEP  53 IS      -0.4999999806582787 [AU]
 ======================================================================
 ITERATION STEP  54
 CPU time [min]:    17.961                   Wall time [min]:    12.458
 
 ALPHA OCC:   1   0   0   0   0   0   0   0
 BETA  OCC:   0   0   0   0   0   0   0   0
 ***HARTREE-FOCK ENERGY IN STEP  54 IS      -0.4999999806582804 [AU]
 ======================================================================
 ITERATION STEP  55
 CPU time [min]:    18.269                   Wall time [min]:    12.665
 
 ALPHA OCC:   1   0   0   0   0   0   0   0
 BETA  OCC:   0   0   0   0   0   0   0   0
 ***HARTREE-FOCK ENERGY IN STEP  55 IS      -0.4999999806582858 [AU]
 ======================================================================
 ITERATION STEP  56
 CPU time [min]:    18.668                   Wall time [min]:    12.877
 
 ALPHA OCC:   1   0   0   0   0   0   0   0
 BETA  OCC:   0   0   0   0   0   0   0   0
 ***HARTREE-FOCK ENERGY IN STEP  56 IS      -0.4999999806582910 [AU]
 ======================================================================
 ITERATION STEP  57
 CPU time [min]:    18.993                   Wall time [min]:    13.089
 
 ALPHA OCC:   1   0   0   0   0   0   0   0
 BETA  OCC:   0   0   0   0   0   0   0   0
 ***HARTREE-FOCK ENERGY IN STEP  57 IS      -0.4999999806582789 [AU]
 ======================================================================
 ITERATION STEP  58
 CPU time [min]:    19.365                   Wall time [min]:    13.298
 
 ALPHA OCC:   1   0   0   0   0   0   0   0
 BETA  OCC:   0   0   0   0   0   0   0   0
 ***HARTREE-FOCK ENERGY IN STEP  58 IS      -0.4999999806582757 [AU]
 ======================================================================
 ITERATION STEP  59
 CPU time [min]:    19.676                   Wall time [min]:    13.505
 
 ALPHA OCC:   1   0   0   0   0   0   0   0
 BETA  OCC:   0   0   0   0   0   0   0   0
 ***HARTREE-FOCK ENERGY IN STEP  59 IS      -0.4999999806582759 [AU]
 ======================================================================
 ITERATION STEP  60
 CPU time [min]:    19.987                   Wall time [min]:    13.712
 
 ALPHA OCC:   1   0   0   0   0   0   0   0
 BETA  OCC:   0   0   0   0   0   0   0   0
 ***HARTREE-FOCK ENERGY IN STEP  60 IS      -0.4999999806582773 [AU]
 ======================================================================
 ITERATION STEP  61
 CPU time [min]:    20.294                   Wall time [min]:    13.919
 
 ALPHA OCC:   1   0   0   0   0   0   0   0
 BETA  OCC:   0   0   0   0   0   0   0   0
 ***HARTREE-FOCK ENERGY IN STEP  61 IS      -0.4999999806582715 [AU]
 ======================================================================
 ITERATION STEP  62
 CPU time [min]:    20.679                   Wall time [min]:    14.141
 
 ALPHA OCC:   1   0   0   0   0   0   0   0
 BETA  OCC:   0   0   0   0   0   0   0   0
 ***HARTREE-FOCK ENERGY IN STEP  62 IS      -0.4999999806582730 [AU]
 ======================================================================
 ITERATION STEP  63
 CPU time [min]:    21.023                   Wall time [min]:    14.355
 
 ALPHA OCC:   1   0   0   0   0   0   0   0
 BETA  OCC:   0   0   0   0   0   0   0   0
 ***HARTREE-FOCK ENERGY IN STEP  63 IS      -0.4999999806582776 [AU]
 ======================================================================
 ITERATION STEP  64
 CPU time [min]:    21.351                   Wall time [min]:    14.562
 
 ALPHA OCC:   1   0   0   0   0   0   0   0
 BETA  OCC:   0   0   0   0   0   0   0   0
 ***HARTREE-FOCK ENERGY IN STEP  64 IS      -0.4999999806582694 [AU]
 ======================================================================
 ITERATION STEP  65
 CPU time [min]:    21.711                   Wall time [min]:    14.777
 
 ALPHA OCC:   1   0   0   0   0   0   0   0
 BETA  OCC:   0   0   0   0   0   0   0   0
 ***HARTREE-FOCK ENERGY IN STEP  65 IS      -0.4999999806582730 [AU]
 ======================================================================
 ITERATION STEP  66
 CPU time [min]:    22.046                   Wall time [min]:    14.984
 
 ALPHA OCC:   1   0   0   0   0   0   0   0
 BETA  OCC:   0   0   0   0   0   0   0   0
 ***HARTREE-FOCK ENERGY IN STEP  66 IS      -0.4999999806582747 [AU]
 ======================================================================
 ITERATION STEP  67
 CPU time [min]:    22.379                   Wall time [min]:    15.191
 
 ALPHA OCC:   1   0   0   0   0   0   0   0
 BETA  OCC:   0   0   0   0   0   0   0   0
 ***HARTREE-FOCK ENERGY IN STEP  67 IS      -0.4999999806582828 [AU]
 ======================================================================
 ITERATION STEP  68
 CPU time [min]:    22.713                   Wall time [min]:    15.396
 
 ALPHA OCC:   1   0   0   0   0   0   0   0
 BETA  OCC:   0   0   0   0   0   0   0   0
 ***HARTREE-FOCK ENERGY IN STEP  68 IS      -0.4999999806582505 [AU]
 ======================================================================
 ITERATION STEP  69
 CPU time [min]:    23.086                   Wall time [min]:    15.606
 
 ALPHA OCC:   1   0   0   0   0   0   0   0
 BETA  OCC:   0   0   0   0   0   0   0   0
 ***HARTREE-FOCK ENERGY IN STEP  69 IS      -0.4999999806582666 [AU]
 ======================================================================
 ITERATION STEP  70
 CPU time [min]:    23.449                   Wall time [min]:    15.818
 
 ALPHA OCC:   1   0   0   0   0   0   0   0
 BETA  OCC:   0   0   0   0   0   0   0   0
 ***HARTREE-FOCK ENERGY IN STEP  70 IS      -0.4999999806582688 [AU]
 ======================================================================
 ITERATION STEP  71
 CPU time [min]:    23.824                   Wall time [min]:    16.026
 
 ALPHA OCC:   1   0   0   0   0   0   0   0
 BETA  OCC:   0   0   0   0   0   0   0   0
 ***HARTREE-FOCK ENERGY IN STEP  71 IS      -0.4999999806582767 [AU]
 ======================================================================
 ITERATION STEP  72
 CPU time [min]:    24.206                   Wall time [min]:    16.237
 
 ALPHA OCC:   1   0   0   0   0   0   0   0
 BETA  OCC:   0   0   0   0   0   0   0   0
 ***HARTREE-FOCK ENERGY IN STEP  72 IS      -0.4999999806582756 [AU]
 ======================================================================
 ITERATION STEP  73
 CPU time [min]:    24.620                   Wall time [min]:    16.449
 
 ALPHA OCC:   1   0   0   0   0   0   0   0
 BETA  OCC:   0   0   0   0   0   0   0   0
 ***HARTREE-FOCK ENERGY IN STEP  73 IS      -0.4999999806582747 [AU]
 ======================================================================
 ITERATION STEP  74
 CPU time [min]:    24.965                   Wall time [min]:    16.656
 
 ALPHA OCC:   1   0   0   0   0   0   0   0
 BETA  OCC:   0   0   0   0   0   0   0   0
 ***HARTREE-FOCK ENERGY IN STEP  74 IS      -0.4999999806582796 [AU]
 ======================================================================
 ITERATION STEP  75
 CPU time [min]:    25.282                   Wall time [min]:    16.861
 
 ALPHA OCC:   1   0   0   0   0   0   0   0
 BETA  OCC:   0   0   0   0   0   0   0   0
 ***HARTREE-FOCK ENERGY IN STEP  75 IS      -0.4999999806582826 [AU]
 ======================================================================
 ITERATION STEP  76
 CPU time [min]:    25.626                   Wall time [min]:    17.066
 
 ALPHA OCC:   1   0   0   0   0   0   0   0
 BETA  OCC:   0   0   0   0   0   0   0   0
 ***HARTREE-FOCK ENERGY IN STEP  76 IS      -0.4999999806582593 [AU]
 ======================================================================
 ITERATION STEP  77
 CPU time [min]:    25.948                   Wall time [min]:    17.270
 
 ALPHA OCC:   1   0   0   0   0   0   0   0
 BETA  OCC:   0   0   0   0   0   0   0   0
 ***HARTREE-FOCK ENERGY IN STEP  77 IS      -0.4999999806582736 [AU]
 ======================================================================
 ITERATION STEP  78
 CPU time [min]:    26.251                   Wall time [min]:    17.475
 
 ALPHA OCC:   1   0   0   0   0   0   0   0
 BETA  OCC:   0   0   0   0   0   0   0   0
 ***HARTREE-FOCK ENERGY IN STEP  78 IS      -0.4999999806582864 [AU]
 ======================================================================
 ITERATION STEP  79
 CPU time [min]:    26.581                   Wall time [min]:    17.680
 
 ALPHA OCC:   1   0   0   0   0   0   0   0
 BETA  OCC:   0   0   0   0   0   0   0   0
 ***HARTREE-FOCK ENERGY IN STEP  79 IS      -0.4999999806582751 [AU]
 ======================================================================
 ITERATION STEP  80
 CPU time [min]:    26.891                   Wall time [min]:    17.885
 
 ALPHA OCC:   1   0   0   0   0   0   0   0
 BETA  OCC:   0   0   0   0   0   0   0   0
 ***HARTREE-FOCK ENERGY IN STEP  80 IS      -0.4999999806582871 [AU]
 ======================================================================
 ITERATION STEP  81
 CPU time [min]:    27.230                   Wall time [min]:    18.089
 
 ALPHA OCC:   1   0   0   0   0   0   0   0
 BETA  OCC:   0   0   0   0   0   0   0   0
 ***HARTREE-FOCK ENERGY IN STEP  81 IS      -0.4999999806582663 [AU]
 ======================================================================
 ITERATION STEP  82
 CPU time [min]:    27.600                   Wall time [min]:    18.297
 
 ALPHA OCC:   1   0   0   0   0   0   0   0
 BETA  OCC:   0   0   0   0   0   0   0   0
 ***HARTREE-FOCK ENERGY IN STEP  82 IS      -0.4999999806582753 [AU]
 ======================================================================
 ITERATION STEP  83
 CPU time [min]:    27.980                   Wall time [min]:    18.509
 
 ALPHA OCC:   1   0   0   0   0   0   0   0
 BETA  OCC:   0   0   0   0   0   0   0   0
 ***HARTREE-FOCK ENERGY IN STEP  83 IS      -0.4999999806582887 [AU]
 ======================================================================
 ITERATION STEP  84
 CPU time [min]:    28.304                   Wall time [min]:    18.714
 
 ALPHA OCC:   1   0   0   0   0   0   0   0
 BETA  OCC:   0   0   0   0   0   0   0   0
 ***HARTREE-FOCK ENERGY IN STEP  84 IS      -0.4999999806582600 [AU]
 ======================================================================
 ITERATION STEP  85
 CPU time [min]:    28.612                   Wall time [min]:    18.919
 
 ALPHA OCC:   1   0   0   0   0   0   0   0
 BETA  OCC:   0   0   0   0   0   0   0   0
 ***HARTREE-FOCK ENERGY IN STEP  85 IS      -0.4999999806582799 [AU]
 ======================================================================
 ITERATION STEP  86
 CPU time [min]:    28.941                   Wall time [min]:    19.124
 
 ALPHA OCC:   1   0   0   0   0   0   0   0
 BETA  OCC:   0   0   0   0   0   0   0   0
 ***HARTREE-FOCK ENERGY IN STEP  86 IS      -0.4999999806582685 [AU]
 ======================================================================
 ITERATION STEP  87
 CPU time [min]:    29.257                   Wall time [min]:    19.329
 
 ALPHA OCC:   1   0   0   0   0   0   0   0
 BETA  OCC:   0   0   0   0   0   0   0   0
 ***HARTREE-FOCK ENERGY IN STEP  87 IS      -0.4999999806582762 [AU]
 ======================================================================
 ITERATION STEP  88
 CPU time [min]:    29.596                   Wall time [min]:    19.534
 
 ALPHA OCC:   1   0   0   0   0   0   0   0
 BETA  OCC:   0   0   0   0   0   0   0   0
 ***HARTREE-FOCK ENERGY IN STEP  88 IS      -0.4999999806582692 [AU]
 ======================================================================
 ITERATION STEP  89
 CPU time [min]:    29.959                   Wall time [min]:    19.743
 
 ALPHA OCC:   1   0   0   0   0   0   0   0
 BETA  OCC:   0   0   0   0   0   0   0   0
 ***HARTREE-FOCK ENERGY IN STEP  89 IS      -0.4999999806582808 [AU]
 ======================================================================
 ITERATION STEP  90
 CPU time [min]:    30.306                   Wall time [min]:    19.955
 
 ALPHA OCC:   1   0   0   0   0   0   0   0
 BETA  OCC:   0   0   0   0   0   0   0   0
 ***HARTREE-FOCK ENERGY IN STEP  90 IS      -0.4999999806582689 [AU]
 ======================================================================
 ITERATION STEP  91
 CPU time [min]:    30.609                   Wall time [min]:    20.160
 
 ALPHA OCC:   1   0   0   0   0   0   0   0
 BETA  OCC:   0   0   0   0   0   0   0   0
 ***HARTREE-FOCK ENERGY IN STEP  91 IS      -0.4999999806582715 [AU]
 ======================================================================
 ITERATION STEP  92
 CPU time [min]:    30.940                   Wall time [min]:    20.364
 
 ALPHA OCC:   1   0   0   0   0   0   0   0
 BETA  OCC:   0   0   0   0   0   0   0   0
 ***HARTREE-FOCK ENERGY IN STEP  92 IS      -0.4999999806582786 [AU]
 ======================================================================
 ITERATION STEP  93
 CPU time [min]:    31.258                   Wall time [min]:    20.570
 
 ALPHA OCC:   1   0   0   0   0   0   0   0
 BETA  OCC:   0   0   0   0   0   0   0   0
 ***HARTREE-FOCK ENERGY IN STEP  93 IS      -0.4999999806582762 [AU]
 ======================================================================
 ITERATION STEP  94
 CPU time [min]:    31.585                   Wall time [min]:    20.775
 
 ALPHA OCC:   1   0   0   0   0   0   0   0
 BETA  OCC:   0   0   0   0   0   0   0   0
 ***HARTREE-FOCK ENERGY IN STEP  94 IS      -0.4999999806582679 [AU]
 ======================================================================
 ITERATION STEP  95
 CPU time [min]:    31.893                   Wall time [min]:    20.980
 
 ALPHA OCC:   1   0   0   0   0   0   0   0
 BETA  OCC:   0   0   0   0   0   0   0   0
 ***HARTREE-FOCK ENERGY IN STEP  95 IS      -0.4999999806582782 [AU]
 ======================================================================
 ITERATION STEP  96
 CPU time [min]:    32.233                   Wall time [min]:    21.185
 
 ALPHA OCC:   1   0   0   0   0   0   0   0
 BETA  OCC:   0   0   0   0   0   0   0   0
 ***HARTREE-FOCK ENERGY IN STEP  96 IS      -0.4999999806582636 [AU]
 ======================================================================
 ITERATION STEP  97
 CPU time [min]:    32.538                   Wall time [min]:    21.390
 
 ALPHA OCC:   1   0   0   0   0   0   0   0
 BETA  OCC:   0   0   0   0   0   0   0   0
 ***HARTREE-FOCK ENERGY IN STEP  97 IS      -0.4999999806582733 [AU]
 ======================================================================
 ITERATION STEP  98
 CPU time [min]:    32.878                   Wall time [min]:    21.595
 
 ALPHA OCC:   1   0   0   0   0   0   0   0
 BETA  OCC:   0   0   0   0   0   0   0   0
 ***HARTREE-FOCK ENERGY IN STEP  98 IS      -0.4999999806582744 [AU]
 ======================================================================
 ITERATION STEP  99
 CPU time [min]:    33.197                   Wall time [min]:    21.875
 
 ALPHA OCC:   1   0   0   0   0   0   0   0
 BETA  OCC:   0   0   0   0   0   0   0   0
 ***HARTREE-FOCK ENERGY IN STEP  99 IS      -0.4999999806582681 [AU]
 ======================================================================
 ITERATION STEP 100
 CPU time [min]:    33.507                   Wall time [min]:    22.084
 
 ALPHA OCC:   1   0   0   0   0   0   0   0
 BETA  OCC:   0   0   0   0   0   0   0   0
 ***HARTREE-FOCK ENERGY IN STEP 100 IS      -0.4999999806582677 [AU]
 ======================================================================
 ITERATION STEP 101
 CPU time [min]:    33.833                   Wall time [min]:    22.289
 
 ALPHA OCC:   1   0   0   0   0   0   0   0
 BETA  OCC:   0   0   0   0   0   0   0   0
 ***HARTREE-FOCK ENERGY IN STEP 101 IS      -0.4999999806582793 [AU]
 ======================================================================
 ITERATION STEP 102
 CPU time [min]:    34.139                   Wall time [min]:    22.494
 
 ALPHA OCC:   1   0   0   0   0   0   0   0
 BETA  OCC:   0   0   0   0   0   0   0   0
 ***HARTREE-FOCK ENERGY IN STEP 102 IS      -0.4999999806582865 [AU]
 ======================================================================
 ITERATION STEP 103
 CPU time [min]:    34.472                   Wall time [min]:    22.711
 
 ALPHA OCC:   1   0   0   0   0   0   0   0
 BETA  OCC:   0   0   0   0   0   0   0   0
 ***HARTREE-FOCK ENERGY IN STEP 103 IS      -0.4999999806582781 [AU]
 ======================================================================
 ITERATION STEP 104
 CPU time [min]:    34.797                   Wall time [min]:    22.912
 
 ALPHA OCC:   1   0   0   0   0   0   0   0
 BETA  OCC:   0   0   0   0   0   0   0   0
 ***HARTREE-FOCK ENERGY IN STEP 104 IS      -0.4999999806582795 [AU]
 ======================================================================
 ITERATION STEP 105
 CPU time [min]:    35.109                   Wall time [min]:    23.113
 
 ALPHA OCC:   1   0   0   0   0   0   0   0
 BETA  OCC:   0   0   0   0   0   0   0   0
 ***HARTREE-FOCK ENERGY IN STEP 105 IS      -0.4999999806582621 [AU]
 ======================================================================
 ITERATION STEP 106
 CPU time [min]:    35.413                   Wall time [min]:    23.313
 
 ALPHA OCC:   1   0   0   0   0   0   0   0
 BETA  OCC:   0   0   0   0   0   0   0   0
 ***HARTREE-FOCK ENERGY IN STEP 106 IS      -0.4999999806582851 [AU]
 ======================================================================
 ITERATION STEP 107
 CPU time [min]:    35.750                   Wall time [min]:    23.516
 
 ALPHA OCC:   1   0   0   0   0   0   0   0
 BETA  OCC:   0   0   0   0   0   0   0   0
 ***HARTREE-FOCK ENERGY IN STEP 107 IS      -0.4999999806582782 [AU]
 ======================================================================
 ITERATION STEP 108
 CPU time [min]:    36.093                   Wall time [min]:    23.723
 
 ALPHA OCC:   1   0   0   0   0   0   0   0
 BETA  OCC:   0   0   0   0   0   0   0   0
 ***HARTREE-FOCK ENERGY IN STEP 108 IS      -0.4999999806582719 [AU]
 ======================================================================
 ITERATION STEP 109
 CPU time [min]:    36.396                   Wall time [min]:    23.928
 
 ALPHA OCC:   1   0   0   0   0   0   0   0
 BETA  OCC:   0   0   0   0   0   0   0   0
 ***HARTREE-FOCK ENERGY IN STEP 109 IS      -0.4999999806582703 [AU]
 ======================================================================
 ITERATION STEP 110
 CPU time [min]:    36.727                   Wall time [min]:    24.133
 
 ALPHA OCC:   1   0   0   0   0   0   0   0
 BETA  OCC:   0   0   0   0   0   0   0   0
 ***HARTREE-FOCK ENERGY IN STEP 110 IS      -0.4999999806582723 [AU]
 ======================================================================
 ITERATION STEP 111
 CPU time [min]:    37.059                   Wall time [min]:    24.339
 
 ALPHA OCC:   1   0   0   0   0   0   0   0
 BETA  OCC:   0   0   0   0   0   0   0   0
 ***HARTREE-FOCK ENERGY IN STEP 111 IS      -0.4999999806582793 [AU]
 ======================================================================
 ITERATION STEP 112
 CPU time [min]:    37.376                   Wall time [min]:    24.544
 
 ALPHA OCC:   1   0   0   0   0   0   0   0
 BETA  OCC:   0   0   0   0   0   0   0   0
 ***HARTREE-FOCK ENERGY IN STEP 112 IS      -0.4999999806582918 [AU]
 ======================================================================
 ITERATION STEP 113
 CPU time [min]:    37.724                   Wall time [min]:    24.749
 
 ALPHA OCC:   1   0   0   0   0   0   0   0
 BETA  OCC:   0   0   0   0   0   0   0   0
 ***HARTREE-FOCK ENERGY IN STEP 113 IS      -0.4999999806582674 [AU]
 ======================================================================
 ITERATION STEP 114
 CPU time [min]:    38.053                   Wall time [min]:    24.953
 
 ALPHA OCC:   1   0   0   0   0   0   0   0
 BETA  OCC:   0   0   0   0   0   0   0   0
 ***HARTREE-FOCK ENERGY IN STEP 114 IS      -0.4999999806582732 [AU]
 ======================================================================
 ITERATION STEP 115
 CPU time [min]:    38.360                   Wall time [min]:    25.158
 
 ALPHA OCC:   1   0   0   0   0   0   0   0
 BETA  OCC:   0   0   0   0   0   0   0   0
 ***HARTREE-FOCK ENERGY IN STEP 115 IS      -0.4999999806582845 [AU]
 ======================================================================
 ITERATION STEP 116
 CPU time [min]:    38.695                   Wall time [min]:    25.363
 
 ALPHA OCC:   1   0   0   0   0   0   0   0
 BETA  OCC:   0   0   0   0   0   0   0   0
 ***HARTREE-FOCK ENERGY IN STEP 116 IS      -0.4999999806582798 [AU]
 ======================================================================
 ITERATION STEP 117
 CPU time [min]:    39.009                   Wall time [min]:    25.568
 
 ALPHA OCC:   1   0   0   0   0   0   0   0
 BETA  OCC:   0   0   0   0   0   0   0   0
 ***HARTREE-FOCK ENERGY IN STEP 117 IS      -0.4999999806582777 [AU]
 ======================================================================
 ITERATION STEP 118
 CPU time [min]:    39.349                   Wall time [min]:    25.773
 
 ALPHA OCC:   1   0   0   0   0   0   0   0
 BETA  OCC:   0   0   0   0   0   0   0   0
 ***HARTREE-FOCK ENERGY IN STEP 118 IS      -0.4999999806582821 [AU]
 ======================================================================
 ITERATION STEP 119
 CPU time [min]:    39.671                   Wall time [min]:    25.977
 
 ALPHA OCC:   1   0   0   0   0   0   0   0
 BETA  OCC:   0   0   0   0   0   0   0   0
 ***HARTREE-FOCK ENERGY IN STEP 119 IS      -0.4999999806582889 [AU]
 ======================================================================
 ITERATION STEP 120
 CPU time [min]:    39.979                   Wall time [min]:    26.182
 
 ALPHA OCC:   1   0   0   0   0   0   0   0
 BETA  OCC:   0   0   0   0   0   0   0   0
 ***HARTREE-FOCK ENERGY IN STEP 120 IS      -0.4999999806582626 [AU]
 ======================================================================
 ITERATION STEP 121
 CPU time [min]:    40.311                   Wall time [min]:    26.387
 
 ALPHA OCC:   1   0   0   0   0   0   0   0
 BETA  OCC:   0   0   0   0   0   0   0   0
 ***HARTREE-FOCK ENERGY IN STEP 121 IS      -0.4999999806582909 [AU]
 ======================================================================
 ITERATION STEP 122
 CPU time [min]:    40.620                   Wall time [min]:    26.592
 
 ALPHA OCC:   1   0   0   0   0   0   0   0
 BETA  OCC:   0   0   0   0   0   0   0   0
 ***HARTREE-FOCK ENERGY IN STEP 122 IS      -0.4999999806582746 [AU]
 ======================================================================
 ITERATION STEP 123
 CPU time [min]:    40.954                   Wall time [min]:    26.797
 
 ALPHA OCC:   1   0   0   0   0   0   0   0
 BETA  OCC:   0   0   0   0   0   0   0   0
 ***HARTREE-FOCK ENERGY IN STEP 123 IS      -0.4999999806582811 [AU]
 ======================================================================
 ITERATION STEP 124
 CPU time [min]:    41.267                   Wall time [min]:    27.002
 
 ALPHA OCC:   1   0   0   0   0   0   0   0
 BETA  OCC:   0   0   0   0   0   0   0   0
 ***HARTREE-FOCK ENERGY IN STEP 124 IS      -0.4999999806582666 [AU]
 ======================================================================
 ITERATION STEP 125
 CPU time [min]:    41.632                   Wall time [min]:    27.205
 
 ALPHA OCC:   1   0   0   0   0   0   0   0
 BETA  OCC:   0   0   0   0   0   0   0   0
 ***HARTREE-FOCK ENERGY IN STEP 125 IS      -0.4999999806582845 [AU]
 ======================================================================
 ITERATION STEP 126
 CPU time [min]:    41.931                   Wall time [min]:    27.405
 
 ALPHA OCC:   1   0   0   0   0   0   0   0
 BETA  OCC:   0   0   0   0   0   0   0   0
 ***HARTREE-FOCK ENERGY IN STEP 126 IS      -0.4999999806582830 [AU]
 ======================================================================
 ITERATION STEP 127
 CPU time [min]:    42.270                   Wall time [min]:    27.606
 
 ALPHA OCC:   1   0   0   0   0   0   0   0
 BETA  OCC:   0   0   0   0   0   0   0   0
 ***HARTREE-FOCK ENERGY IN STEP 127 IS      -0.4999999806582843 [AU]
 ======================================================================
 ITERATION STEP 128
 CPU time [min]:    42.610                   Wall time [min]:    27.811
 
 ALPHA OCC:   1   0   0   0   0   0   0   0
 BETA  OCC:   0   0   0   0   0   0   0   0
 ***HARTREE-FOCK ENERGY IN STEP 128 IS      -0.4999999806582804 [AU]
 ======================================================================
 ITERATION STEP 129
 CPU time [min]:    42.929                   Wall time [min]:    28.016
 
 ALPHA OCC:   1   0   0   0   0   0   0   0
 BETA  OCC:   0   0   0   0   0   0   0   0
 ***HARTREE-FOCK ENERGY IN STEP 129 IS      -0.4999999806582799 [AU]
 ======================================================================
 ITERATION STEP 130
 CPU time [min]:    43.274                   Wall time [min]:    28.220
 
 ALPHA OCC:   1   0   0   0   0   0   0   0
 BETA  OCC:   0   0   0   0   0   0   0   0
 ***HARTREE-FOCK ENERGY IN STEP 130 IS      -0.4999999806582875 [AU]
 ======================================================================
 ITERATION STEP 131
 CPU time [min]:    43.597                   Wall time [min]:    28.425
 
 ALPHA OCC:   1   0   0   0   0   0   0   0
 BETA  OCC:   0   0   0   0   0   0   0   0
 ***HARTREE-FOCK ENERGY IN STEP 131 IS      -0.4999999806582891 [AU]
 ======================================================================
 ITERATION STEP 132
 CPU time [min]:    43.974                   Wall time [min]:    28.636
 
 ALPHA OCC:   1   0   0   0   0   0   0   0
 BETA  OCC:   0   0   0   0   0   0   0   0
 ***HARTREE-FOCK ENERGY IN STEP 132 IS      -0.4999999806582817 [AU]
 ======================================================================
 ITERATION STEP 133
 CPU time [min]:    44.362                   Wall time [min]:    28.856
 
 ALPHA OCC:   1   0   0   0   0   0   0   0
 BETA  OCC:   0   0   0   0   0   0   0   0
 ***HARTREE-FOCK ENERGY IN STEP 133 IS      -0.4999999806582960 [AU]
 ======================================================================
 ITERATION STEP 134
 CPU time [min]:    44.676                   Wall time [min]:    29.063
 
 ALPHA OCC:   1   0   0   0   0   0   0   0
 BETA  OCC:   0   0   0   0   0   0   0   0
 ***HARTREE-FOCK ENERGY IN STEP 134 IS      -0.4999999806582799 [AU]
 ======================================================================
 ITERATION STEP 135
 CPU time [min]:    45.018                   Wall time [min]:    29.268
 
 ALPHA OCC:   1   0   0   0   0   0   0   0
 BETA  OCC:   0   0   0   0   0   0   0   0
 ***HARTREE-FOCK ENERGY IN STEP 135 IS      -0.4999999806582672 [AU]
 ======================================================================
 ITERATION STEP 136
 CPU time [min]:    45.333                   Wall time [min]:    29.473
 
 ALPHA OCC:   1   0   0   0   0   0   0   0
 BETA  OCC:   0   0   0   0   0   0   0   0
 ***HARTREE-FOCK ENERGY IN STEP 136 IS      -0.4999999806582800 [AU]
 ======================================================================
 ITERATION STEP 137
 CPU time [min]:    45.677                   Wall time [min]:    29.678
 
 ALPHA OCC:   1   0   0   0   0   0   0   0
 BETA  OCC:   0   0   0   0   0   0   0   0
 ***HARTREE-FOCK ENERGY IN STEP 137 IS      -0.4999999806582798 [AU]
 ======================================================================
 ITERATION STEP 138
 CPU time [min]:    45.998                   Wall time [min]:    29.883
 
 ALPHA OCC:   1   0   0   0   0   0   0   0
 BETA  OCC:   0   0   0   0   0   0   0   0
 ***HARTREE-FOCK ENERGY IN STEP 138 IS      -0.4999999806582837 [AU]
 ======================================================================
 ITERATION STEP 139
 CPU time [min]:    46.385                   Wall time [min]:    30.091
 
 ALPHA OCC:   1   0   0   0   0   0   0   0
 BETA  OCC:   0   0   0   0   0   0   0   0
 ***HARTREE-FOCK ENERGY IN STEP 139 IS      -0.4999999806582758 [AU]
 ======================================================================
 ITERATION STEP 140
 CPU time [min]:    46.799                   Wall time [min]:    30.305
 
 ALPHA OCC:   1   0   0   0   0   0   0   0
 BETA  OCC:   0   0   0   0   0   0   0   0
 ***HARTREE-FOCK ENERGY IN STEP 140 IS      -0.4999999806582825 [AU]
 ======================================================================
 ITERATION STEP 141
 CPU time [min]:    47.227                   Wall time [min]:    30.534
 
 ALPHA OCC:   1   0   0   0   0   0   0   0
 BETA  OCC:   0   0   0   0   0   0   0   0
 ***HARTREE-FOCK ENERGY IN STEP 141 IS      -0.4999999806582658 [AU]
 ======================================================================
 ITERATION STEP 142
 CPU time [min]:    47.529                   Wall time [min]:    30.745
 
 ALPHA OCC:   1   0   0   0   0   0   0   0
 BETA  OCC:   0   0   0   0   0   0   0   0
 ***HARTREE-FOCK ENERGY IN STEP 142 IS      -0.4999999806582588 [AU]
 ======================================================================
 ITERATION STEP 143
 CPU time [min]:    47.859                   Wall time [min]:    30.950
 
 ALPHA OCC:   1   0   0   0   0   0   0   0
 BETA  OCC:   0   0   0   0   0   0   0   0
 ***HARTREE-FOCK ENERGY IN STEP 143 IS      -0.4999999806582920 [AU]
 ======================================================================
 ITERATION STEP 144
 CPU time [min]:    48.161                   Wall time [min]:    31.155
 
 ALPHA OCC:   1   0   0   0   0   0   0   0
 BETA  OCC:   0   0   0   0   0   0   0   0
 ***HARTREE-FOCK ENERGY IN STEP 144 IS      -0.4999999806582792 [AU]
 ======================================================================
 ITERATION STEP 145
 CPU time [min]:    48.491                   Wall time [min]:    31.359
 
 ALPHA OCC:   1   0   0   0   0   0   0   0
 BETA  OCC:   0   0   0   0   0   0   0   0
 ***HARTREE-FOCK ENERGY IN STEP 145 IS      -0.4999999806582764 [AU]
 ======================================================================
 ITERATION STEP 146
 CPU time [min]:    48.802                   Wall time [min]:    31.564
 
 ALPHA OCC:   1   0   0   0   0   0   0   0
 BETA  OCC:   0   0   0   0   0   0   0   0
 ***HARTREE-FOCK ENERGY IN STEP 146 IS      -0.4999999806582950 [AU]
 ======================================================================
 ITERATION STEP 147
 CPU time [min]:    49.145                   Wall time [min]:    31.769
 
 ALPHA OCC:   1   0   0   0   0   0   0   0
 BETA  OCC:   0   0   0   0   0   0   0   0
 ***HARTREE-FOCK ENERGY IN STEP 147 IS      -0.4999999806582900 [AU]
 ======================================================================
 ITERATION STEP 148
 CPU time [min]:    49.458                   Wall time [min]:    31.975
 
 ALPHA OCC:   1   0   0   0   0   0   0   0
 BETA  OCC:   0   0   0   0   0   0   0   0
 ***HARTREE-FOCK ENERGY IN STEP 148 IS      -0.4999999806582727 [AU]
 ======================================================================
 ITERATION STEP 149
 CPU time [min]:    49.827                   Wall time [min]:    32.182
 
 ALPHA OCC:   1   0   0   0   0   0   0   0
 BETA  OCC:   0   0   0   0   0   0   0   0
 ***HARTREE-FOCK ENERGY IN STEP 149 IS      -0.4999999806582819 [AU]
 ======================================================================
 ITERATION STEP 150
 CPU time [min]:    50.206                   Wall time [min]:    32.390
 
 ALPHA OCC:   1   0   0   0   0   0   0   0
 BETA  OCC:   0   0   0   0   0   0   0   0
 ***HARTREE-FOCK ENERGY IN STEP 150 IS      -0.4999999806582578 [AU]
 ======================================================================
 ITERATION STEP 151
 CPU time [min]:    50.587                   Wall time [min]:    32.600
 
 ALPHA OCC:   1   0   0   0   0   0   0   0
 BETA  OCC:   0   0   0   0   0   0   0   0
 ***HARTREE-FOCK ENERGY IN STEP 151 IS      -0.4999999806582837 [AU]
 ======================================================================
 ITERATION STEP 152
 CPU time [min]:    50.940                   Wall time [min]:    32.807
 
 ALPHA OCC:   1   0   0   0   0   0   0   0
 BETA  OCC:   0   0   0   0   0   0   0   0
 ***HARTREE-FOCK ENERGY IN STEP 152 IS      -0.4999999806582893 [AU]
 ======================================================================
 ITERATION STEP 153
 CPU time [min]:    51.258                   Wall time [min]:    33.013
 
 ALPHA OCC:   1   0   0   0   0   0   0   0
 BETA  OCC:   0   0   0   0   0   0   0   0
 ***HARTREE-FOCK ENERGY IN STEP 153 IS      -0.4999999806582761 [AU]
 ======================================================================
 ITERATION STEP 154
 CPU time [min]:    51.568                   Wall time [min]:    33.218
 
 ALPHA OCC:   1   0   0   0   0   0   0   0
 BETA  OCC:   0   0   0   0   0   0   0   0
 ***HARTREE-FOCK ENERGY IN STEP 154 IS      -0.4999999806582742 [AU]
 ======================================================================
 ITERATION STEP 155
 CPU time [min]:    51.910                   Wall time [min]:    33.423
 
 ALPHA OCC:   1   0   0   0   0   0   0   0
 BETA  OCC:   0   0   0   0   0   0   0   0
 ***HARTREE-FOCK ENERGY IN STEP 155 IS      -0.4999999806582697 [AU]
 ======================================================================
 ITERATION STEP 156
 CPU time [min]:    52.281                   Wall time [min]:    33.635
 
 ALPHA OCC:   1   0   0   0   0   0   0   0
 BETA  OCC:   0   0   0   0   0   0   0   0
 ***HARTREE-FOCK ENERGY IN STEP 156 IS      -0.4999999806582956 [AU]
 ======================================================================
 ITERATION STEP 157
 CPU time [min]:    52.618                   Wall time [min]:    33.844
 
 ALPHA OCC:   1   0   0   0   0   0   0   0
 BETA  OCC:   0   0   0   0   0   0   0   0
 ***HARTREE-FOCK ENERGY IN STEP 157 IS      -0.4999999806582747 [AU]
 ======================================================================
 ITERATION STEP 158
 CPU time [min]:    52.923                   Wall time [min]:    34.050
 
 ALPHA OCC:   1   0   0   0   0   0   0   0
 BETA  OCC:   0   0   0   0   0   0   0   0
 ***HARTREE-FOCK ENERGY IN STEP 158 IS      -0.4999999806582857 [AU]
 ======================================================================
 ITERATION STEP 159
 CPU time [min]:    53.251                   Wall time [min]:    34.255
 
 ALPHA OCC:   1   0   0   0   0   0   0   0
 BETA  OCC:   0   0   0   0   0   0   0   0
 ***HARTREE-FOCK ENERGY IN STEP 159 IS      -0.4999999806582855 [AU]
 ======================================================================
 ITERATION STEP 160
 CPU time [min]:    53.551                   Wall time [min]:    34.460
 
 ALPHA OCC:   1   0   0   0   0   0   0   0
 BETA  OCC:   0   0   0   0   0   0   0   0
 ***HARTREE-FOCK ENERGY IN STEP 160 IS      -0.4999999806582744 [AU]
 ======================================================================
 ITERATION STEP 161
 CPU time [min]:    53.879                   Wall time [min]:    34.664
 
 ALPHA OCC:   1   0   0   0   0   0   0   0
 BETA  OCC:   0   0   0   0   0   0   0   0
 ***HARTREE-FOCK ENERGY IN STEP 161 IS      -0.4999999806582964 [AU]
 ======================================================================
 ITERATION STEP 162
 CPU time [min]:    54.191                   Wall time [min]:    34.869
 
 ALPHA OCC:   1   0   0   0   0   0   0   0
 BETA  OCC:   0   0   0   0   0   0   0   0
 ***HARTREE-FOCK ENERGY IN STEP 162 IS      -0.4999999806582762 [AU]
 ======================================================================
 ITERATION STEP 163
 CPU time [min]:    54.527                   Wall time [min]:    35.074
 
 ALPHA OCC:   1   0   0   0   0   0   0   0
 BETA  OCC:   0   0   0   0   0   0   0   0
 ***HARTREE-FOCK ENERGY IN STEP 163 IS      -0.4999999806582616 [AU]
 ======================================================================
 ITERATION STEP 164
 CPU time [min]:    54.872                   Wall time [min]:    35.284
 
 ALPHA OCC:   1   0   0   0   0   0   0   0
 BETA  OCC:   0   0   0   0   0   0   0   0
 ***HARTREE-FOCK ENERGY IN STEP 164 IS      -0.4999999806582687 [AU]
 ======================================================================
 ITERATION STEP 165
 CPU time [min]:    55.179                   Wall time [min]:    35.497
 
 ALPHA OCC:   1   0   0   0   0   0   0   0
 BETA  OCC:   0   0   0   0   0   0   0   0
 ***HARTREE-FOCK ENERGY IN STEP 165 IS      -0.4999999806582794 [AU]
 ======================================================================
 ITERATION STEP 166
 CPU time [min]:    55.511                   Wall time [min]:    35.702
 
 ALPHA OCC:   1   0   0   0   0   0   0   0
 BETA  OCC:   0   0   0   0   0   0   0   0
 ***HARTREE-FOCK ENERGY IN STEP 166 IS      -0.4999999806582712 [AU]
 ======================================================================
 ITERATION STEP 167
 CPU time [min]:    55.817                   Wall time [min]:    35.907
 
 ALPHA OCC:   1   0   0   0   0   0   0   0
 BETA  OCC:   0   0   0   0   0   0   0   0
 ***HARTREE-FOCK ENERGY IN STEP 167 IS      -0.4999999806582696 [AU]
 ======================================================================
 ITERATION STEP 168
 CPU time [min]:    56.155                   Wall time [min]:    36.112
 
 ALPHA OCC:   1   0   0   0   0   0   0   0
 BETA  OCC:   0   0   0   0   0   0   0   0
 ***HARTREE-FOCK ENERGY IN STEP 168 IS      -0.4999999806582724 [AU]
 ======================================================================
 ITERATION STEP 169
 CPU time [min]:    56.463                   Wall time [min]:    36.316
 
 ALPHA OCC:   1   0   0   0   0   0   0   0
 BETA  OCC:   0   0   0   0   0   0   0   0
 ***HARTREE-FOCK ENERGY IN STEP 169 IS      -0.4999999806582873 [AU]
 ======================================================================
 ITERATION STEP 170
 CPU time [min]:    56.810                   Wall time [min]:    36.522
 
 ALPHA OCC:   1   0   0   0   0   0   0   0
 BETA  OCC:   0   0   0   0   0   0   0   0
 ***HARTREE-FOCK ENERGY IN STEP 170 IS      -0.4999999806582671 [AU]
 ======================================================================
 ITERATION STEP 171
 CPU time [min]:    57.118                   Wall time [min]:    36.727
 
 ALPHA OCC:   1   0   0   0   0   0   0   0
 BETA  OCC:   0   0   0   0   0   0   0   0
 ***HARTREE-FOCK ENERGY IN STEP 171 IS      -0.4999999806582734 [AU]
 ======================================================================
 ITERATION STEP 172
 CPU time [min]:    57.506                   Wall time [min]:    36.957
 
 ALPHA OCC:   1   0   0   0   0   0   0   0
 BETA  OCC:   0   0   0   0   0   0   0   0
 ***HARTREE-FOCK ENERGY IN STEP 172 IS      -0.4999999806582769 [AU]
 ======================================================================
 ITERATION STEP 173
 CPU time [min]:    57.843                   Wall time [min]:    37.173
 
 ALPHA OCC:   1   0   0   0   0   0   0   0
 BETA  OCC:   0   0   0   0   0   0   0   0
 ***HARTREE-FOCK ENERGY IN STEP 173 IS      -0.4999999806582726 [AU]
 ======================================================================
 ITERATION STEP 174
 CPU time [min]:    58.149                   Wall time [min]:    37.378
 
 ALPHA OCC:   1   0   0   0   0   0   0   0
 BETA  OCC:   0   0   0   0   0   0   0   0
 ***HARTREE-FOCK ENERGY IN STEP 174 IS      -0.4999999806582693 [AU]
 ======================================================================
 ITERATION STEP 175
 CPU time [min]:    58.476                   Wall time [min]:    37.583
 
 ALPHA OCC:   1   0   0   0   0   0   0   0
 BETA  OCC:   0   0   0   0   0   0   0   0
 ***HARTREE-FOCK ENERGY IN STEP 175 IS      -0.4999999806582765 [AU]
 ======================================================================
 ITERATION STEP 176
 CPU time [min]:    58.781                   Wall time [min]:    37.787
 
 ALPHA OCC:   1   0   0   0   0   0   0   0
 BETA  OCC:   0   0   0   0   0   0   0   0
 ***HARTREE-FOCK ENERGY IN STEP 176 IS      -0.4999999806582791 [AU]
 ======================================================================
 ITERATION STEP 177
 CPU time [min]:    59.116                   Wall time [min]:    37.992
 
 ALPHA OCC:   1   0   0   0   0   0   0   0
 BETA  OCC:   0   0   0   0   0   0   0   0
 ***HARTREE-FOCK ENERGY IN STEP 177 IS      -0.4999999806583053 [AU]
 ======================================================================
 ITERATION STEP 178
 CPU time [min]:    59.431                   Wall time [min]:    38.197
 
 ALPHA OCC:   1   0   0   0   0   0   0   0
 BETA  OCC:   0   0   0   0   0   0   0   0
 ***HARTREE-FOCK ENERGY IN STEP 178 IS      -0.4999999806582700 [AU]
 ======================================================================
 ITERATION STEP 179
 CPU time [min]:    59.774                   Wall time [min]:    38.406
 
 ALPHA OCC:   1   0   0   0   0   0   0   0
 BETA  OCC:   0   0   0   0   0   0   0   0
 ***HARTREE-FOCK ENERGY IN STEP 179 IS      -0.4999999806582663 [AU]
 ======================================================================
 ITERATION STEP 180
 CPU time [min]:    60.114                   Wall time [min]:    38.614
 
 ALPHA OCC:   1   0   0   0   0   0   0   0
 BETA  OCC:   0   0   0   0   0   0   0   0
 ***HARTREE-FOCK ENERGY IN STEP 180 IS      -0.4999999806582860 [AU]
 ======================================================================
 ITERATION STEP 181
 CPU time [min]:    60.459                   Wall time [min]:    38.821
 
 ALPHA OCC:   1   0   0   0   0   0   0   0
 BETA  OCC:   0   0   0   0   0   0   0   0
 ***HARTREE-FOCK ENERGY IN STEP 181 IS      -0.4999999806582776 [AU]
 ======================================================================
 ITERATION STEP 182
 CPU time [min]:    60.794                   Wall time [min]:    39.028
 
 ALPHA OCC:   1   0   0   0   0   0   0   0
 BETA  OCC:   0   0   0   0   0   0   0   0
 ***HARTREE-FOCK ENERGY IN STEP 182 IS      -0.4999999806582683 [AU]
 ======================================================================
 ITERATION STEP 183
 CPU time [min]:    61.128                   Wall time [min]:    39.237
 
 ALPHA OCC:   1   0   0   0   0   0   0   0
 BETA  OCC:   0   0   0   0   0   0   0   0
 ***HARTREE-FOCK ENERGY IN STEP 183 IS      -0.4999999806582778 [AU]
 ======================================================================
 ITERATION STEP 184
 CPU time [min]:    61.513                   Wall time [min]:    39.448
 
 ALPHA OCC:   1   0   0   0   0   0   0   0
 BETA  OCC:   0   0   0   0   0   0   0   0
 ***HARTREE-FOCK ENERGY IN STEP 184 IS      -0.4999999806582730 [AU]
 ======================================================================
 ITERATION STEP 185
 CPU time [min]:    61.850                   Wall time [min]:    39.659
 
 ALPHA OCC:   1   0   0   0   0   0   0   0
 BETA  OCC:   0   0   0   0   0   0   0   0
 ***HARTREE-FOCK ENERGY IN STEP 185 IS      -0.4999999806582834 [AU]
 ======================================================================
 ITERATION STEP 186
 CPU time [min]:    62.178                   Wall time [min]:    39.867
 
 ALPHA OCC:   1   0   0   0   0   0   0   0
 BETA  OCC:   0   0   0   0   0   0   0   0
 ***HARTREE-FOCK ENERGY IN STEP 186 IS      -0.4999999806582617 [AU]
 ======================================================================
 ITERATION STEP 187
 CPU time [min]:    62.528                   Wall time [min]:    40.075
 
 ALPHA OCC:   1   0   0   0   0   0   0   0
 BETA  OCC:   0   0   0   0   0   0   0   0
 ***HARTREE-FOCK ENERGY IN STEP 187 IS      -0.4999999806582818 [AU]
 ======================================================================
 ITERATION STEP 188
 CPU time [min]:    62.861                   Wall time [min]:    40.280
 
 ALPHA OCC:   1   0   0   0   0   0   0   0
 BETA  OCC:   0   0   0   0   0   0   0   0
 ***HARTREE-FOCK ENERGY IN STEP 188 IS      -0.4999999806582819 [AU]
 ======================================================================
 ITERATION STEP 189
 CPU time [min]:    63.167                   Wall time [min]:    40.485
 
 ALPHA OCC:   1   0   0   0   0   0   0   0
 BETA  OCC:   0   0   0   0   0   0   0   0
 ***HARTREE-FOCK ENERGY IN STEP 189 IS      -0.4999999806582793 [AU]
 ======================================================================
 ITERATION STEP 190
 CPU time [min]:    63.498                   Wall time [min]:    40.691
 
 ALPHA OCC:   1   0   0   0   0   0   0   0
 BETA  OCC:   0   0   0   0   0   0   0   0
 ***HARTREE-FOCK ENERGY IN STEP 190 IS      -0.4999999806582719 [AU]
 ======================================================================
 ITERATION STEP 191
 CPU time [min]:    63.805                   Wall time [min]:    40.895
 
 ALPHA OCC:   1   0   0   0   0   0   0   0
 BETA  OCC:   0   0   0   0   0   0   0   0
 ***HARTREE-FOCK ENERGY IN STEP 191 IS      -0.4999999806582962 [AU]
 ======================================================================
 ITERATION STEP 192
 CPU time [min]:    64.139                   Wall time [min]:    41.100
 
 ALPHA OCC:   1   0   0   0   0   0   0   0
 BETA  OCC:   0   0   0   0   0   0   0   0
 ***HARTREE-FOCK ENERGY IN STEP 192 IS      -0.4999999806582791 [AU]
 ======================================================================
 ITERATION STEP 193
 CPU time [min]:    64.457                   Wall time [min]:    41.306
 
 ALPHA OCC:   1   0   0   0   0   0   0   0
 BETA  OCC:   0   0   0   0   0   0   0   0
 ***HARTREE-FOCK ENERGY IN STEP 193 IS      -0.4999999806582798 [AU]
 ======================================================================
 ITERATION STEP 194
 CPU time [min]:    64.785                   Wall time [min]:    41.511
 
 ALPHA OCC:   1   0   0   0   0   0   0   0
 BETA  OCC:   0   0   0   0   0   0   0   0
 ***HARTREE-FOCK ENERGY IN STEP 194 IS      -0.4999999806582702 [AU]
 ======================================================================
 ITERATION STEP 195
 CPU time [min]:    65.092                   Wall time [min]:    41.719
 
 ALPHA OCC:   1   0   0   0   0   0   0   0
 BETA  OCC:   0   0   0   0   0   0   0   0
 ***HARTREE-FOCK ENERGY IN STEP 195 IS      -0.4999999806582722 [AU]
 ======================================================================
 ITERATION STEP 196
 CPU time [min]:    65.436                   Wall time [min]:    41.926
 
 ALPHA OCC:   1   0   0   0   0   0   0   0
 BETA  OCC:   0   0   0   0   0   0   0   0
 ***HARTREE-FOCK ENERGY IN STEP 196 IS      -0.4999999806582854 [AU]
 ======================================================================
 ITERATION STEP 197
 CPU time [min]:    65.776                   Wall time [min]:    42.133
 
 ALPHA OCC:   1   0   0   0   0   0   0   0
 BETA  OCC:   0   0   0   0   0   0   0   0
 ***HARTREE-FOCK ENERGY IN STEP 197 IS      -0.4999999806582953 [AU]
 ======================================================================
 ITERATION STEP 198
 CPU time [min]:    66.112                   Wall time [min]:    42.337
 
 ALPHA OCC:   1   0   0   0   0   0   0   0
 BETA  OCC:   0   0   0   0   0   0   0   0
 ***HARTREE-FOCK ENERGY IN STEP 198 IS      -0.4999999806582795 [AU]
 ======================================================================
 ITERATION STEP 199
 CPU time [min]:    66.427                   Wall time [min]:    42.542
 
 ALPHA OCC:   1   0   0   0   0   0   0   0
 BETA  OCC:   0   0   0   0   0   0   0   0
 ***HARTREE-FOCK ENERGY IN STEP 199 IS      -0.4999999806582912 [AU]
 ======================================================================
 ITERATION STEP 200
 CPU time [min]:    66.778                   Wall time [min]:    42.747
 
 ALPHA OCC:   1   0   0   0   0   0   0   0
 BETA  OCC:   0   0   0   0   0   0   0   0
 ***HARTREE-FOCK ENERGY IN STEP 200 IS      -0.4999999806582740 [AU]
 ======================================================================
 ITERATION STEP 201
 CPU time [min]:    67.103                   Wall time [min]:    42.956
 
 ALPHA OCC:   1   0   0   0   0   0   0   0
 BETA  OCC:   0   0   0   0   0   0   0   0
 ***HARTREE-FOCK ENERGY IN STEP 201 IS      -0.4999999806582908 [AU]
 ======================================================================
 ITERATION STEP 202
 CPU time [min]:    67.502                   Wall time [min]:    43.166
 
 ALPHA OCC:   1   0   0   0   0   0   0   0
 BETA  OCC:   0   0   0   0   0   0   0   0
 ***HARTREE-FOCK ENERGY IN STEP 202 IS      -0.4999999806582753 [AU]
 ======================================================================
 ITERATION STEP 203
 CPU time [min]:    67.816                   Wall time [min]:    43.376
 
 ALPHA OCC:   1   0   0   0   0   0   0   0
 BETA  OCC:   0   0   0   0   0   0   0   0
 ***HARTREE-FOCK ENERGY IN STEP 203 IS      -0.4999999806582593 [AU]
 ======================================================================
 ITERATION STEP 204
 CPU time [min]:    68.159                   Wall time [min]:    43.581
 
 ALPHA OCC:   1   0   0   0   0   0   0   0
 BETA  OCC:   0   0   0   0   0   0   0   0
 ***HARTREE-FOCK ENERGY IN STEP 204 IS      -0.4999999806582764 [AU]
 ======================================================================
 ITERATION STEP 205
 CPU time [min]:    68.485                   Wall time [min]:    43.786
 
 ALPHA OCC:   1   0   0   0   0   0   0   0
 BETA  OCC:   0   0   0   0   0   0   0   0
 ***HARTREE-FOCK ENERGY IN STEP 205 IS      -0.4999999806582800 [AU]
 ======================================================================
 ITERATION STEP 206
 CPU time [min]:    68.827                   Wall time [min]:    43.991
 
 ALPHA OCC:   1   0   0   0   0   0   0   0
 BETA  OCC:   0   0   0   0   0   0   0   0
 ***HARTREE-FOCK ENERGY IN STEP 206 IS      -0.4999999806582724 [AU]
 ======================================================================
 ITERATION STEP 207
 CPU time [min]:    69.150                   Wall time [min]:    44.198
 
 ALPHA OCC:   1   0   0   0   0   0   0   0
 BETA  OCC:   0   0   0   0   0   0   0   0
 ***HARTREE-FOCK ENERGY IN STEP 207 IS      -0.4999999806582726 [AU]
 ======================================================================
 ITERATION STEP 208
 CPU time [min]:    69.467                   Wall time [min]:    44.403
 
 ALPHA OCC:   1   0   0   0   0   0   0   0
 BETA  OCC:   0   0   0   0   0   0   0   0
 ***HARTREE-FOCK ENERGY IN STEP 208 IS      -0.4999999806582840 [AU]
 ======================================================================
 ITERATION STEP 209
 CPU time [min]:    69.808                   Wall time [min]:    44.610
 
 ALPHA OCC:   1   0   0   0   0   0   0   0
 BETA  OCC:   0   0   0   0   0   0   0   0
 ***HARTREE-FOCK ENERGY IN STEP 209 IS      -0.4999999806582861 [AU]
 ======================================================================
 ITERATION STEP 210
 CPU time [min]:    70.147                   Wall time [min]:    44.818
 
 ALPHA OCC:   1   0   0   0   0   0   0   0
 BETA  OCC:   0   0   0   0   0   0   0   0
 ***HARTREE-FOCK ENERGY IN STEP 210 IS      -0.4999999806582832 [AU]
 ======================================================================
 ITERATION STEP 211
 CPU time [min]:    70.479                   Wall time [min]:    45.024
 
 ALPHA OCC:   1   0   0   0   0   0   0   0
 BETA  OCC:   0   0   0   0   0   0   0   0
 ***HARTREE-FOCK ENERGY IN STEP 211 IS      -0.4999999806582715 [AU]
 ======================================================================
 ITERATION STEP 212
 CPU time [min]:    70.809                   Wall time [min]:    45.231
 
 ALPHA OCC:   1   0   0   0   0   0   0   0
 BETA  OCC:   0   0   0   0   0   0   0   0
 ***HARTREE-FOCK ENERGY IN STEP 212 IS      -0.4999999806582745 [AU]
 ======================================================================
 ITERATION STEP 213
 CPU time [min]:    71.168                   Wall time [min]:    45.441
 
 ALPHA OCC:   1   0   0   0   0   0   0   0
 BETA  OCC:   0   0   0   0   0   0   0   0
 ***HARTREE-FOCK ENERGY IN STEP 213 IS      -0.4999999806582602 [AU]
 ======================================================================
 ITERATION STEP 214
 CPU time [min]:    71.493                   Wall time [min]:    45.652
 
 ALPHA OCC:   1   0   0   0   0   0   0   0
 BETA  OCC:   0   0   0   0   0   0   0   0
 ***HARTREE-FOCK ENERGY IN STEP 214 IS      -0.4999999806582732 [AU]
 ======================================================================
 ITERATION STEP 215
 CPU time [min]:    71.820                   Wall time [min]:    45.859
 
 ALPHA OCC:   1   0   0   0   0   0   0   0
 BETA  OCC:   0   0   0   0   0   0   0   0
 ***HARTREE-FOCK ENERGY IN STEP 215 IS      -0.4999999806582776 [AU]
 ======================================================================
 ITERATION STEP 216
 CPU time [min]:    72.145                   Wall time [min]:    46.066
 
 ALPHA OCC:   1   0   0   0   0   0   0   0
 BETA  OCC:   0   0   0   0   0   0   0   0
 ***HARTREE-FOCK ENERGY IN STEP 216 IS      -0.4999999806582691 [AU]
 ======================================================================
 ITERATION STEP 217
 CPU time [min]:    72.466                   Wall time [min]:    46.273
 
 ALPHA OCC:   1   0   0   0   0   0   0   0
 BETA  OCC:   0   0   0   0   0   0   0   0
 ***HARTREE-FOCK ENERGY IN STEP 217 IS      -0.4999999806582643 [AU]
 ======================================================================
 ITERATION STEP 218
 CPU time [min]:    72.784                   Wall time [min]:    46.480
 
 ALPHA OCC:   1   0   0   0   0   0   0   0
 BETA  OCC:   0   0   0   0   0   0   0   0
 ***HARTREE-FOCK ENERGY IN STEP 218 IS      -0.4999999806582607 [AU]
 ======================================================================
 ITERATION STEP 219
 CPU time [min]:    73.097                   Wall time [min]:    46.687
 
 ALPHA OCC:   1   0   0   0   0   0   0   0
 BETA  OCC:   0   0   0   0   0   0   0   0
 ***HARTREE-FOCK ENERGY IN STEP 219 IS      -0.4999999806582814 [AU]
 ======================================================================
 ITERATION STEP 220
 CPU time [min]:    73.410                   Wall time [min]:    46.894
 
 ALPHA OCC:   1   0   0   0   0   0   0   0
 BETA  OCC:   0   0   0   0   0   0   0   0
 ***HARTREE-FOCK ENERGY IN STEP 220 IS      -0.4999999806582757 [AU]
 ======================================================================
 ITERATION STEP 221
 CPU time [min]:    73.716                   Wall time [min]:    47.100
 
 ALPHA OCC:   1   0   0   0   0   0   0   0
 BETA  OCC:   0   0   0   0   0   0   0   0
 ***HARTREE-FOCK ENERGY IN STEP 221 IS      -0.4999999806582829 [AU]
 ======================================================================
 ITERATION STEP 222
 CPU time [min]:    74.020                   Wall time [min]:    47.307
 
 ALPHA OCC:   1   0   0   0   0   0   0   0
 BETA  OCC:   0   0   0   0   0   0   0   0
 ***HARTREE-FOCK ENERGY IN STEP 222 IS      -0.4999999806582949 [AU]
 ======================================================================
 ITERATION STEP 223
 CPU time [min]:    74.372                   Wall time [min]:    47.514
 
 ALPHA OCC:   1   0   0   0   0   0   0   0
 BETA  OCC:   0   0   0   0   0   0   0   0
 ***HARTREE-FOCK ENERGY IN STEP 223 IS      -0.4999999806582814 [AU]
 ======================================================================
 ITERATION STEP 224
 CPU time [min]:    74.722                   Wall time [min]:    47.721
 
 ALPHA OCC:   1   0   0   0   0   0   0   0
 BETA  OCC:   0   0   0   0   0   0   0   0
 ***HARTREE-FOCK ENERGY IN STEP 224 IS      -0.4999999806582898 [AU]
 ======================================================================
 ITERATION STEP 225
 CPU time [min]:    75.118                   Wall time [min]:    47.932
 
 ALPHA OCC:   1   0   0   0   0   0   0   0
 BETA  OCC:   0   0   0   0   0   0   0   0
 ***HARTREE-FOCK ENERGY IN STEP 225 IS      -0.4999999806582925 [AU]
 ======================================================================
 ITERATION STEP 226
 CPU time [min]:    75.458                   Wall time [min]:    48.142
 
 ALPHA OCC:   1   0   0   0   0   0   0   0
 BETA  OCC:   0   0   0   0   0   0   0   0
 ***HARTREE-FOCK ENERGY IN STEP 226 IS      -0.4999999806582838 [AU]
 ======================================================================
 ITERATION STEP 227
 CPU time [min]:    75.794                   Wall time [min]:    48.349
 
 ALPHA OCC:   1   0   0   0   0   0   0   0
 BETA  OCC:   0   0   0   0   0   0   0   0
 ***HARTREE-FOCK ENERGY IN STEP 227 IS      -0.4999999806582711 [AU]
 ======================================================================
 ITERATION STEP 228
 CPU time [min]:    76.180                   Wall time [min]:    48.565
 
 ALPHA OCC:   1   0   0   0   0   0   0   0
 BETA  OCC:   0   0   0   0   0   0   0   0
 ***HARTREE-FOCK ENERGY IN STEP 228 IS      -0.4999999806582847 [AU]
 ======================================================================
 ITERATION STEP 229
 CPU time [min]:    76.510                   Wall time [min]:    48.778
 
 ALPHA OCC:   1   0   0   0   0   0   0   0
 BETA  OCC:   0   0   0   0   0   0   0   0
 ***HARTREE-FOCK ENERGY IN STEP 229 IS      -0.4999999806582694 [AU]
 ======================================================================
 ITERATION STEP 230
 CPU time [min]:    76.813                   Wall time [min]:    48.986
 
 ALPHA OCC:   1   0   0   0   0   0   0   0
 BETA  OCC:   0   0   0   0   0   0   0   0
 ***HARTREE-FOCK ENERGY IN STEP 230 IS      -0.4999999806582827 [AU]
 ======================================================================
 ITERATION STEP 231
 CPU time [min]:    77.155                   Wall time [min]:    49.193
 
 ALPHA OCC:   1   0   0   0   0   0   0   0
 BETA  OCC:   0   0   0   0   0   0   0   0
 ***HARTREE-FOCK ENERGY IN STEP 231 IS      -0.4999999806582767 [AU]
 ======================================================================
 ITERATION STEP 232
 CPU time [min]:    77.485                   Wall time [min]:    49.401
 
 ALPHA OCC:   1   0   0   0   0   0   0   0
 BETA  OCC:   0   0   0   0   0   0   0   0
 ***HARTREE-FOCK ENERGY IN STEP 232 IS      -0.4999999806582681 [AU]
[...]
 ITERATION STEP 274
 CPU time [min]:    91.608                   Wall time [min]:    58.210
 
 ALPHA OCC:   1   0   0   0   0   0   0   0
 BETA  OCC:   0   0   0   0   0   0   0   0
 ***HARTREE-FOCK ENERGY IN STEP 274 IS      -0.4999999806582872 [AU]
 ======================================================================
 ITERATION STEP 275
 CPU time [min]:    91.942                   Wall time [min]:    58.417
 
 ALPHA OCC:   1   0   0   0   0   0   0   0
 BETA  OCC:   0   0   0   0   0   0   0   0
 ***HARTREE-FOCK ENERGY IN STEP 275 IS      -0.4999999806582908 [AU]
 ======================================================================
 ITERATION STEP 276
 CPU time [min]:    92.273                   Wall time [min]:    58.626
 
 ALPHA OCC:   1   0   0   0   0   0   0   0
 BETA  OCC:   0   0   0   0   0   0   0   0
 ***HARTREE-FOCK ENERGY IN STEP 276 IS      -0.4999999806582685 [AU]
 ======================================================================
 ITERATION STEP 277
 CPU time [min]:    92.625                   Wall time [min]:    58.833
 
 ALPHA OCC:   1   0   0   0   0   0   0   0
 BETA  OCC:   0   0   0   0   0   0   0   0
 ***HARTREE-FOCK ENERGY IN STEP 277 IS      -0.4999999806582888 [AU]
 ======================================================================
 ITERATION STEP 278
 CPU time [min]:    92.972                   Wall time [min]:    59.040
 
 ALPHA OCC:   1   0   0   0   0   0   0   0
 BETA  OCC:   0   0   0   0   0   0   0   0
 ***HARTREE-FOCK ENERGY IN STEP 278 IS      -0.4999999806582756 [AU]
 ======================================================================
 ITERATION STEP 279
 CPU time [min]:    93.314                   Wall time [min]:    59.247
 
 ALPHA OCC:   1   0   0   0   0   0   0   0
 BETA  OCC:   0   0   0   0   0   0   0   0
 ***HARTREE-FOCK ENERGY IN STEP 279 IS      -0.4999999806582770 [AU]
 ======================================================================
 ITERATION STEP 280
 CPU time [min]:    93.652                   Wall time [min]:    59.454
 
 ALPHA OCC:   1   0   0   0   0   0   0   0
 BETA  OCC:   0   0   0   0   0   0   0   0
 ***HARTREE-FOCK ENERGY IN STEP 280 IS      -0.4999999806582806 [AU]
 ======================================================================
 ITERATION STEP 281
 CPU time [min]:    93.984                   Wall time [min]:    59.661
 
 ALPHA OCC:   1   0   0   0   0   0   0   0
 BETA  OCC:   0   0   0   0   0   0   0   0
 ***HARTREE-FOCK ENERGY IN STEP 281 IS      -0.4999999806582784 [AU]
 ======================================================================
 ITERATION STEP 282
 CPU time [min]:    94.339                   Wall time [min]:    59.871
 
 ALPHA OCC:   1   0   0   0   0   0   0   0
 BETA  OCC:   0   0   0   0   0   0   0   0
 ***HARTREE-FOCK ENERGY IN STEP 282 IS      -0.4999999806582838 [AU]
 ======================================================================
 ITERATION STEP 283
 CPU time [min]:    94.667                   Wall time [min]:    60.082
 
 ALPHA OCC:   1   0   0   0   0   0   0   0
 BETA  OCC:   0   0   0   0   0   0   0   0
 ***HARTREE-FOCK ENERGY IN STEP 283 IS      -0.4999999806582874 [AU]
 ======================================================================
 ITERATION STEP 284
 CPU time [min]:    94.996                   Wall time [min]:    60.291
 
 ALPHA OCC:   1   0   0   0   0   0   0   0
 BETA  OCC:   0   0   0   0   0   0   0   0
 ***HARTREE-FOCK ENERGY IN STEP 284 IS      -0.4999999806582630 [AU]
 ======================================================================
 ITERATION STEP 285
 CPU time [min]:    95.337                   Wall time [min]:    60.499
 
 ALPHA OCC:   1   0   0   0   0   0   0   0
 BETA  OCC:   0   0   0   0   0   0   0   0
 ***HARTREE-FOCK ENERGY IN STEP 285 IS      -0.4999999806582693 [AU]
 ======================================================================
 ITERATION STEP 286
 CPU time [min]:    95.717                   Wall time [min]:    60.715
 
 ALPHA OCC:   1   0   0   0   0   0   0   0
 BETA  OCC:   0   0   0   0   0   0   0   0
 ***HARTREE-FOCK ENERGY IN STEP 286 IS      -0.4999999806582747 [AU]
 ======================================================================
 ITERATION STEP 287
 CPU time [min]:    96.047                   Wall time [min]:    60.933
 
 ALPHA OCC:   1   0   0   0   0   0   0   0
 BETA  OCC:   0   0   0   0   0   0   0   0
 ***HARTREE-FOCK ENERGY IN STEP 287 IS      -0.4999999806582834 [AU]
 ======================================================================
 ITERATION STEP 288
 CPU time [min]:    96.357                   Wall time [min]:    61.142
 
 ALPHA OCC:   1   0   0   0   0   0   0   0
 BETA  OCC:   0   0   0   0   0   0   0   0
 ***HARTREE-FOCK ENERGY IN STEP 288 IS      -0.4999999806582670 [AU]
 ======================================================================
 ITERATION STEP 289
 CPU time [min]:    96.751                   Wall time [min]:    61.371
 
 ALPHA OCC:   1   0   0   0   0   0   0   0
 BETA  OCC:   0   0   0   0   0   0   0   0
 ***HARTREE-FOCK ENERGY IN STEP 289 IS      -0.4999999806582892 [AU]
 ======================================================================
 ITERATION STEP 290
 CPU time [min]:    97.077                   Wall time [min]:    61.614
 
 ALPHA OCC:   1   0   0   0   0   0   0   0
 BETA  OCC:   0   0   0   0   0   0   0   0
 ***HARTREE-FOCK ENERGY IN STEP 290 IS      -0.4999999806582868 [AU]
 ======================================================================
 ITERATION STEP 291
 CPU time [min]:    97.421                   Wall time [min]:    61.822
 
 ALPHA OCC:   1   0   0   0   0   0   0   0
 BETA  OCC:   0   0   0   0   0   0   0   0
 ***HARTREE-FOCK ENERGY IN STEP 291 IS      -0.4999999806582826 [AU]
 ======================================================================
 ITERATION STEP 292
 CPU time [min]:    97.760                   Wall time [min]:    62.031
 
 ALPHA OCC:   1   0   0   0   0   0   0   0
 BETA  OCC:   0   0   0   0   0   0   0   0
 ***HARTREE-FOCK ENERGY IN STEP 292 IS      -0.4999999806582642 [AU]
 ======================================================================
 ITERATION STEP 293
 CPU time [min]:    98.110                   Wall time [min]:    62.239
 
 ALPHA OCC:   1   0   0   0   0   0   0   0
 BETA  OCC:   0   0   0   0   0   0   0   0
 ***HARTREE-FOCK ENERGY IN STEP 293 IS      -0.4999999806582778 [AU]
 ======================================================================
 ITERATION STEP 294
 CPU time [min]:    98.440                   Wall time [min]:    62.447
 
 ALPHA OCC:   1   0   0   0   0   0   0   0
 BETA  OCC:   0   0   0   0   0   0   0   0
 ***HARTREE-FOCK ENERGY IN STEP 294 IS      -0.4999999806582699 [AU]
 ======================================================================
 ITERATION STEP 295
 CPU time [min]:    98.790                   Wall time [min]:    62.660
 
 ALPHA OCC:   1   0   0   0   0   0   0   0
 BETA  OCC:   0   0   0   0   0   0   0   0
 ***HARTREE-FOCK ENERGY IN STEP 295 IS      -0.4999999806582758 [AU]
 ======================================================================
 ITERATION STEP 296
 CPU time [min]:    99.118                   Wall time [min]:    62.874
 
 ALPHA OCC:   1   0   0   0   0   0   0   0
 BETA  OCC:   0   0   0   0   0   0   0   0
 ***HARTREE-FOCK ENERGY IN STEP 296 IS      -0.4999999806582671 [AU]
 ======================================================================
 ITERATION STEP 297
 CPU time [min]:    99.430                   Wall time [min]:    63.082
 
 ALPHA OCC:   1   0   0   0   0   0   0   0
 BETA  OCC:   0   0   0   0   0   0   0   0
 ***HARTREE-FOCK ENERGY IN STEP 297 IS      -0.4999999806582830 [AU]
 ======================================================================
 ITERATION STEP 298
 CPU time [min]:    99.773                   Wall time [min]:    63.290
 
 ALPHA OCC:   1   0   0   0   0   0   0   0
 BETA  OCC:   0   0   0   0   0   0   0   0
 ***HARTREE-FOCK ENERGY IN STEP 298 IS      -0.4999999806582754 [AU]
 ======================================================================
 ITERATION STEP 299
 CPU time [min]:   100.102                   Wall time [min]:    63.498
 
 ALPHA OCC:   1   0   0   0   0   0   0   0
 BETA  OCC:   0   0   0   0   0   0   0   0
 ***HARTREE-FOCK ENERGY IN STEP 299 IS      -0.4999999806582807 [AU]
 ======================================================================
 ITERATION STEP 300
 CPU time [min]:   100.408                   Wall time [min]:    63.706
 
 ALPHA OCC:   1   0   0   0   0   0   0   0
 BETA  OCC:   0   0   0   0   0   0   0   0
 ***HARTREE-FOCK ENERGY IN STEP 300 IS      -0.4999999806582829 [AU]
 ======================================================================
 ITERATION STEP 301
 CPU time [min]:   100.748                   Wall time [min]:    63.913
 
 ALPHA OCC:   1   0   0   0   0   0   0   0
 BETA  OCC:   0   0   0   0   0   0   0   0
 ***HARTREE-FOCK ENERGY IN STEP 301 IS      -0.4999999806582698 [AU]
 ======================================================================
 ITERATION STEP 302
 CPU time [min]:   101.076                   Wall time [min]:    64.121
 
 ALPHA OCC:   1   0   0   0   0   0   0   0
 BETA  OCC:   0   0   0   0   0   0   0   0
 ***HARTREE-FOCK ENERGY IN STEP 302 IS      -0.4999999806582760 [AU]
 ======================================================================
 ITERATION STEP 303
 CPU time [min]:   101.385                   Wall time [min]:    64.328
 
 ALPHA OCC:   1   0   0   0   0   0   0   0
 BETA  OCC:   0   0   0   0   0   0   0   0
 ***HARTREE-FOCK ENERGY IN STEP 303 IS      -0.4999999806582929 [AU]
 ======================================================================
 ITERATION STEP 304
 CPU time [min]:   101.687                   Wall time [min]:    64.535
 
 ALPHA OCC:   1   0   0   0   0   0   0   0
 BETA  OCC:   0   0   0   0   0   0   0   0
 ***HARTREE-FOCK ENERGY IN STEP 304 IS      -0.4999999806582777 [AU]
 ======================================================================
 ITERATION STEP 305
 CPU time [min]:   102.037                   Wall time [min]:    64.742
 
 ALPHA OCC:   1   0   0   0   0   0   0   0
 BETA  OCC:   0   0   0   0   0   0   0   0
 ***HARTREE-FOCK ENERGY IN STEP 305 IS      -0.4999999806582824 [AU]
 ======================================================================
 ITERATION STEP 306
 CPU time [min]:   102.392                   Wall time [min]:    64.950
 
 ALPHA OCC:   1   0   0   0   0   0   0   0
 BETA  OCC:   0   0   0   0   0   0   0   0
 ***HARTREE-FOCK ENERGY IN STEP 306 IS      -0.4999999806582589 [AU]
 ======================================================================
 ITERATION STEP 307
 CPU time [min]:   102.726                   Wall time [min]:    65.157
 
 ALPHA OCC:   1   0   0   0   0   0   0   0
 BETA  OCC:   0   0   0   0   0   0   0   0
 ***HARTREE-FOCK ENERGY IN STEP 307 IS      -0.4999999806582847 [AU]
 ======================================================================
 ITERATION STEP 308
 CPU time [min]:   103.055                   Wall time [min]:    65.362
 
 ALPHA OCC:   1   0   0   0   0   0   0   0
 BETA  OCC:   0   0   0   0   0   0   0   0
 ***HARTREE-FOCK ENERGY IN STEP 308 IS      -0.4999999806582716 [AU]
 ======================================================================
 ITERATION STEP 309
 CPU time [min]:   103.358                   Wall time [min]:    65.567
 
 ALPHA OCC:   1   0   0   0   0   0   0   0
 BETA  OCC:   0   0   0   0   0   0   0   0
 ***HARTREE-FOCK ENERGY IN STEP 309 IS      -0.4999999806582850 [AU]
 ======================================================================
 ITERATION STEP 310
 CPU time [min]:   103.718                   Wall time [min]:    65.775
 
 ALPHA OCC:   1   0   0   0   0   0   0   0
 BETA  OCC:   0   0   0   0   0   0   0   0
 ***HARTREE-FOCK ENERGY IN STEP 310 IS      -0.4999999806582665 [AU]
 ======================================================================
 ITERATION STEP 311
 CPU time [min]:   104.034                   Wall time [min]:    65.980
 
 ALPHA OCC:   1   0   0   0   0   0   0   0
 BETA  OCC:   0   0   0   0   0   0   0   0
 ***HARTREE-FOCK ENERGY IN STEP 311 IS      -0.4999999806582766 [AU]
 ======================================================================
 ITERATION STEP 312
 CPU time [min]:   104.389                   Wall time [min]:    66.188
 
 ALPHA OCC:   1   0   0   0   0   0   0   0
 BETA  OCC:   0   0   0   0   0   0   0   0
 ***HARTREE-FOCK ENERGY IN STEP 312 IS      -0.4999999806582741 [AU]
 ======================================================================
 ITERATION STEP 313
 CPU time [min]:   104.702                   Wall time [min]:    66.393
 
 ALPHA OCC:   1   0   0   0   0   0   0   0
 BETA  OCC:   0   0   0   0   0   0   0   0
 ***HARTREE-FOCK ENERGY IN STEP 313 IS      -0.4999999806582728 [AU]
 ======================================================================
 ITERATION STEP 314
 CPU time [min]:   105.061                   Wall time [min]:    66.600
 
 ALPHA OCC:   1   0   0   0   0   0   0   0
 BETA  OCC:   0   0   0   0   0   0   0   0
 ***HARTREE-FOCK ENERGY IN STEP 314 IS      -0.4999999806582898 [AU]
 ======================================================================
 ITERATION STEP 315
 CPU time [min]:   105.408                   Wall time [min]:    66.805
 
 ALPHA OCC:   1   0   0   0   0   0   0   0
 BETA  OCC:   0   0   0   0   0   0   0   0
 ***HARTREE-FOCK ENERGY IN STEP 315 IS      -0.4999999806582816 [AU]
 ======================================================================
 ITERATION STEP 316
 CPU time [min]:   105.740                   Wall time [min]:    67.014
 
 ALPHA OCC:   1   0   0   0   0   0   0   0
 BETA  OCC:   0   0   0   0   0   0   0   0
 ***HARTREE-FOCK ENERGY IN STEP 316 IS      -0.4999999806582819 [AU]
 ======================================================================
 ITERATION STEP 317
 CPU time [min]:   106.082                   Wall time [min]:    67.221
 
 ALPHA OCC:   1   0   0   0   0   0   0   0
 BETA  OCC:   0   0   0   0   0   0   0   0
 ***HARTREE-FOCK ENERGY IN STEP 317 IS      -0.4999999806582881 [AU]
 ======================================================================
 ITERATION STEP 318
 CPU time [min]:   106.419                   Wall time [min]:    67.426
 
 ALPHA OCC:   1   0   0   0   0   0   0   0
 BETA  OCC:   0   0   0   0   0   0   0   0
 ***HARTREE-FOCK ENERGY IN STEP 318 IS      -0.4999999806582887 [AU]
 ======================================================================
 ITERATION STEP 319
 CPU time [min]:   106.731                   Wall time [min]:    67.630
 
 ALPHA OCC:   1   0   0   0   0   0   0   0
 BETA  OCC:   0   0   0   0   0   0   0   0
 ***HARTREE-FOCK ENERGY IN STEP 319 IS      -0.4999999806582667 [AU]
 ======================================================================
 ITERATION STEP 320
 CPU time [min]:   107.074                   Wall time [min]:    67.835
 
 ALPHA OCC:   1   0   0   0   0   0   0   0
 BETA  OCC:   0   0   0   0   0   0   0   0
 ***HARTREE-FOCK ENERGY IN STEP 320 IS      -0.4999999806582716 [AU]
 ======================================================================
 ITERATION STEP 321
 CPU time [min]:   107.393                   Wall time [min]:    68.040
 
 ALPHA OCC:   1   0   0   0   0   0   0   0
 BETA  OCC:   0   0   0   0   0   0   0   0
 ***HARTREE-FOCK ENERGY IN STEP 321 IS      -0.4999999806582853 [AU]
 ======================================================================
 ITERATION STEP 322
 CPU time [min]:   107.748                   Wall time [min]:    68.249
 
 ALPHA OCC:   1   0   0   0   0   0   0   0
 BETA  OCC:   0   0   0   0   0   0   0   0
 ***HARTREE-FOCK ENERGY IN STEP 322 IS      -0.4999999806582792 [AU]
 ======================================================================
 ITERATION STEP 323
 CPU time [min]:   108.071                   Wall time [min]:    68.454
 
 ALPHA OCC:   1   0   0   0   0   0   0   0
 BETA  OCC:   0   0   0   0   0   0   0   0
 ***HARTREE-FOCK ENERGY IN STEP 323 IS      -0.4999999806582803 [AU]
 ======================================================================
 ITERATION STEP 324
 CPU time [min]:   108.371                   Wall time [min]:    68.659
 
 ALPHA OCC:   1   0   0   0   0   0   0   0
 BETA  OCC:   0   0   0   0   0   0   0   0
 ***HARTREE-FOCK ENERGY IN STEP 324 IS      -0.4999999806582640 [AU]
 ======================================================================
 ITERATION STEP 325
 CPU time [min]:   108.697                   Wall time [min]:    68.864
 
 ALPHA OCC:   1   0   0   0   0   0   0   0
 BETA  OCC:   0   0   0   0   0   0   0   0
 ***HARTREE-FOCK ENERGY IN STEP 325 IS      -0.4999999806582809 [AU]
 ======================================================================
 ITERATION STEP 326
 CPU time [min]:   108.996                   Wall time [min]:    69.069
 
 ALPHA OCC:   1   0   0   0   0   0   0   0
 BETA  OCC:   0   0   0   0   0   0   0   0
 ***HARTREE-FOCK ENERGY IN STEP 326 IS      -0.4999999806582874 [AU]
 ======================================================================
 ITERATION STEP 327
 CPU time [min]:   109.326                   Wall time [min]:    69.274
 
 ALPHA OCC:   1   0   0   0   0   0   0   0
 BETA  OCC:   0   0   0   0   0   0   0   0
 ***HARTREE-FOCK ENERGY IN STEP 327 IS      -0.4999999806582867 [AU]
 ======================================================================
 ITERATION STEP 328
 CPU time [min]:   109.628                   Wall time [min]:    69.479
 
 ALPHA OCC:   1   0   0   0   0   0   0   0
 BETA  OCC:   0   0   0   0   0   0   0   0
 ***HARTREE-FOCK ENERGY IN STEP 328 IS      -0.4999999806582807 [AU]
 ======================================================================
 ITERATION STEP 329
 CPU time [min]:   109.958                   Wall time [min]:    69.686
 
 ALPHA OCC:   1   0   0   0   0   0   0   0
 BETA  OCC:   0   0   0   0   0   0   0   0
 ***HARTREE-FOCK ENERGY IN STEP 329 IS      -0.4999999806582927 [AU]
 ======================================================================
 ITERATION STEP 330
 CPU time [min]:   110.285                   Wall time [min]:    69.893
 
 ALPHA OCC:   1   0   0   0   0   0   0   0
 BETA  OCC:   0   0   0   0   0   0   0   0
 ***HARTREE-FOCK ENERGY IN STEP 330 IS      -0.4999999806582663 [AU]
 ======================================================================
 ITERATION STEP 331
 CPU time [min]:   110.609                   Wall time [min]:    70.100
 
 ALPHA OCC:   1   0   0   0   0   0   0   0
 BETA  OCC:   0   0   0   0   0   0   0   0
 ***HARTREE-FOCK ENERGY IN STEP 331 IS      -0.4999999806582713 [AU]
 ======================================================================
 ITERATION STEP 332
 CPU time [min]:   110.953                   Wall time [min]:    70.315
 
 ALPHA OCC:   1   0   0   0   0   0   0   0
 BETA  OCC:   0   0   0   0   0   0   0   0
 ***HARTREE-FOCK ENERGY IN STEP 332 IS      -0.4999999806582714 [AU]
 ======================================================================
 
 SUCCESS...
 THE SCF ITERATION HAS CONVERGED!
 
                   Ag  B1g B2g B3g Au  B1u B2u B3u 
 FINAL ALPHA OCC:   1   0   0   0   0   0   0   0
 FINAL BETA  OCC:   0   0   0   0   0   0   0   0
 
 ***FINAL HARTREE-FOCK ENERGY:     -0.4999999806582714 [AU]
 
 RETURNING FROM SCF ALGORITHM
 ======================================================================
 
 ************************ 2017-11-12 23:12:01 *************************
                      Normal termination of mrcc.
 **********************************************************************
--- SharcNET Job Epilogue ---
Job completed successfully.
               jobid: 1490411
               resid: 2971669
         exit status: 0
      allocated time: 5514.42
           user time: 14424.4
         system time: 964.7
peak rss=16179060736; peak vsz=16179060736 (bytes)
atime=5514.42; utime=14424.4; stime=964.7; exit=0
