 **********************************************************************
                          MRCC program system
 **********************************************************************
 
                              Written by
    Mihaly Kallay, Zoltan Rolik, Jozsef Csontos, Istvan Ladjanszki,
       Lorant Szegedy, Bence Ladoczki, Gyula Samu, Klara Petrov,
        Mate Farkas, Peter Nagy, David Mester, and Bence Hegely
 
        Department of Physical Chemistry and Materials Science
            Budapest University of Technology and Economics
                  Budapest P.O.Box 91, H-1521 Hungary
 
                              www.mrcc.hu

 ************************ 2017-12-24 13:22:52 *************************
 Executing minp...

 Reading input from MINP...
 
 Input file:
 
# TITLE
basis=aV9Z-FELLER
uncontract=off
#iface=cfour
itol=18
scftol=16
cctol=7
calc=SCF
mem=22GB
core=corr
ccmaxit=999
scfmaxit=9999
scftype=ROHF

scfiguess=restart
rohftype=standard
mult=2
charge=+0
rest=2

geom
H

 
 
 Checking keyword combinations...
 
 Keywords:
 
 active=none
 agrid=ld0006-ld0590
 basis=av9z-feller
 basopt=off
 bpcompo=0.985
 bpcompv=0.98
 bpdfo=0.985
 bpocc=0.985
 bppdo=0.985
 bppdv=0.98
 bpedo=0.985
 bpedv=0.98
 calc=scf
 ccmaxit=999
 ccprog=mrcc
 cctol=7
 charge=+0
 cialg=disk
 ciguess=off
 cmpgrp=auto
 core=corr
 corembed=off
 dboc=off
 dendec=cholesky
 dens=0
 dfalg=invsqrt
 dfbasis_cor=none
 dfbasis_scf=none
 dfintran=ovirt
 dft=off
 diag=david
 domrad=10.d0
 drpaalg=fit
 ecp=auto
 edisp=off
 embed=off
 epert=none
 eps=0.975
 excrad=0.d0
 excrad_fin=0.000000000D+00
 freq=off
 gauss=spher
 geom=zmat
 gopt=off
 ghost=none
 gtol=7
 grtol=10
 hamilton=dc
 iface=none
 intalg=auto
 itol=18
 lcorthr=loose
 lccrest=off
 lmp2dens=on
 lnoepso=3e-5
 lnoepsv=1e-6
 localcc=off
 locintrf=disk
 maxact=off
 maxex=0
 bfbasis=none
 mem=22gb
 molden=on
 mulmet=0
 mult=2
 nacto=0
 nactv=0
 naf_cor=off
 naf_scf=off
 nafalg=albe
 naftyp=
 nchol=auto
 ndeps=1e-3
 nstate=1
 nsing=0
 ntrip=0
 occ=
 optalg=
 optmaxit=50
 optetol=1e-6
 optgtol=1e-4
 optstol=1e-3
 orblocc=off
 orbloco=off
 orblocv=off
 osveps=1e-3
 ovirt=off
 ovosnorb=80.0
 ptfreq=0.0
 popul=off
 pressure=100000
 qmmm=off
 refdet=none
 rest=2
 rgrid=log3
 rohftype=standard
 scspe=1.d0
 scsps=1.2d0
 scspt=0.33333333333333
 scfalg=auto
 scfdamp=off
 scfdiis=on
 scfdiis_end=9999
 scfdiis_start=1
 scfdiis_step=1
 scfdtol=17
 scfext=10
 scfiguess=restart
 scflshift=off
 scfmaxit=9999
 scftype=rohf
 scftol=16
 spairtol=1e-4
 symm=
 talg=occ
 temp=298.15
 test=off
 tprint=off
 uncontract=off
 unit=angs
 verbosity=2
 wpairtol=0.100000000E-05

 ************************ 2017-12-24 13:22:53 *************************
 Executing integ...

 Allocation of 22.0 Gbytes of memory...
 
 Number of atoms:            1
 Charge:                     0
 Number of electrons:        1
 Number of core electrons:   0
 Spin multiplicity:          2
 
                 Cartesian coordinates [bohr]      Atomic mass [AMU]  Z
   1  H     0.00000000    0.00000000    0.00000000     1.007825       1
 
 This molecule is a spherical top.
 
 Rotational constants [cm-1]: 

 
 Point group: Dxh 
 Computational point group: D2h 
 
 Cartesian coordinates in standard orientation [bohr]
   1  H     0.00000000    0.00000000    0.00000000
 
 Nuclear repulsion energy [au]:          0.000000000000
 
 
 Basis set information:
 
 Maximum angular momentum: l
 Maximum number of contracted Gaussians:   11
 Maximum number of primitive Gaussians:    18
 Spherical harmonic GTOs are used.
 
    1  H  av9z-feller [ 18s 9p 8d 7f 6g 5h 4i 3k 2l | 11s 9p 8d 7f 6g 5h 4i 3k 2
 l ]
 
 Total number of basis functions:   367
 
 
 Character table for point group D2h:
 
          E  C2z C2y C2x  i  Qxy Qxz Qyz 
    Ag    1   1   1   1   1   1   1   1
    B1g   1   1  -1  -1   1   1  -1  -1
    B2g   1  -1   1  -1   1  -1   1  -1
    B3g   1  -1  -1   1   1  -1  -1   1
    Au    1   1   1   1  -1  -1  -1  -1
    B1u   1   1  -1  -1  -1  -1   1   1
    B2u   1  -1   1  -1  -1   1  -1   1
    B3u   1  -1  -1   1  -1   1   1  -1
 
 Number of basis functions per irrep:
    Ag     71
    B1g    40
    B2g    40
    B3g    40
    Au     26
    B1u    50
    B2u    50
    B3u    50
 
 
 Calculation of overlap integrals...
 CPU time [min]:     0.043                   Wall time [min]:     0.025
 Calculation of kinetic energy integrals...
 CPU time [min]:     0.060                   Wall time [min]:     0.026
 Calculation of nuclear attraction integrals...
 CPU time [min]:     0.094                   Wall time [min]:     0.027
 
 Calculation of prescreening integrals...
 CPU time [min]:     5.733                   Wall time [min]:     1.081
 
 Calculation of two-electron integrals...
   1% done.
  17% done.
  38% done.
  68% done.
 100% done.
 CPU time [min]:   134.944                   Wall time [min]:    20.568

 ************************ 2017-12-24 13:43:30 *************************
 Executing scf...

 Allocation of 22.0 Gbytes of memory...
 ======================================================================
 ITERATION STEP   1
 CPU time [min]:     0.041                   Wall time [min]:     0.018
 
 ALPHA OCC:   1   0   0   0   0   0   0   0
 BETA  OCC:   0   0   0   0   0   0   0   0
 ***HARTREE-FOCK ENERGY IN STEP   1 IS      -0.3765522992053922 [AU]
 ======================================================================
 ITERATION STEP   2
 CPU time [min]:     0.441                   Wall time [min]:     0.708
 
 ALPHA OCC:   1   0   0   0   0   0   0   0
 BETA  OCC:   0   0   0   0   0   0   0   0
 ***HARTREE-FOCK ENERGY IN STEP   2 IS      -0.4860175784651868 [AU]
 ======================================================================
 ITERATION STEP   3
 CPU time [min]:     0.814                   Wall time [min]:     0.958
 
 ALPHA OCC:   1   0   0   0   0   0   0   0
 BETA  OCC:   0   0   0   0   0   0   0   0
 ***HARTREE-FOCK ENERGY IN STEP   3 IS      -0.4981826358425643 [AU]
 ======================================================================
 ITERATION STEP   4
 CPU time [min]:     1.130                   Wall time [min]:     1.153
 
 ALPHA OCC:   1   0   0   0   0   0   0   0
 BETA  OCC:   0   0   0   0   0   0   0   0
 ***HARTREE-FOCK ENERGY IN STEP   4 IS      -0.4997698243928519 [AU]
 ======================================================================
 ITERATION STEP   5
 CPU time [min]:     1.425                   Wall time [min]:     1.346
 
 ALPHA OCC:   1   0   0   0   0   0   0   0
 BETA  OCC:   0   0   0   0   0   0   0   0
 ***HARTREE-FOCK ENERGY IN STEP   5 IS      -0.4999882978965290 [AU]
 ======================================================================
 ITERATION STEP   6
 CPU time [min]:     1.724                   Wall time [min]:     1.539
 
 ALPHA OCC:   1   0   0   0   0   0   0   0
 BETA  OCC:   0   0   0   0   0   0   0   0
 ***HARTREE-FOCK ENERGY IN STEP   6 IS      -0.4999991285373133 [AU]
 ======================================================================
 ITERATION STEP   7
 CPU time [min]:     2.055                   Wall time [min]:     1.735
 
 ALPHA OCC:   1   0   0   0   0   0   0   0
 BETA  OCC:   0   0   0   0   0   0   0   0
 ***HARTREE-FOCK ENERGY IN STEP   7 IS      -0.4999999741537863 [AU]
 ======================================================================
 ITERATION STEP   8
 CPU time [min]:     2.369                   Wall time [min]:     1.929
 
 ALPHA OCC:   1   0   0   0   0   0   0   0
 BETA  OCC:   0   0   0   0   0   0   0   0
 ***HARTREE-FOCK ENERGY IN STEP   8 IS      -0.4999999773507532 [AU]
 ======================================================================
 ITERATION STEP   9
 CPU time [min]:     2.680                   Wall time [min]:     2.122
 
 ALPHA OCC:   1   0   0   0   0   0   0   0
 BETA  OCC:   0   0   0   0   0   0   0   0
 ***HARTREE-FOCK ENERGY IN STEP   9 IS      -0.4999999773574481 [AU]
 ======================================================================
 ITERATION STEP  10
 CPU time [min]:     3.004                   Wall time [min]:     2.322
 
 ALPHA OCC:   1   0   0   0   0   0   0   0
 BETA  OCC:   0   0   0   0   0   0   0   0
 ***HARTREE-FOCK ENERGY IN STEP  10 IS      -0.4999999773574629 [AU]
 ======================================================================
 ITERATION STEP  11
 CPU time [min]:     3.312                   Wall time [min]:     2.521
 
 ALPHA OCC:   1   0   0   0   0   0   0   0
 BETA  OCC:   0   0   0   0   0   0   0   0
 ***HARTREE-FOCK ENERGY IN STEP  11 IS      -0.4999999773574632 [AU]
 ======================================================================
 ITERATION STEP  12
 CPU time [min]:     3.646                   Wall time [min]:     2.719
 
 ALPHA OCC:   1   0   0   0   0   0   0   0
 BETA  OCC:   0   0   0   0   0   0   0   0
 ***HARTREE-FOCK ENERGY IN STEP  12 IS      -0.4999999773574635 [AU]
 ======================================================================
 ITERATION STEP  13
 CPU time [min]:     3.960                   Wall time [min]:     2.917
 
 ALPHA OCC:   1   0   0   0   0   0   0   0
 BETA  OCC:   0   0   0   0   0   0   0   0
 ***HARTREE-FOCK ENERGY IN STEP  13 IS      -0.4999999773574619 [AU]
 ======================================================================
 ITERATION STEP  14
 CPU time [min]:     4.299                   Wall time [min]:     3.115
 
 ALPHA OCC:   1   0   0   0   0   0   0   0
 BETA  OCC:   0   0   0   0   0   0   0   0
 ***HARTREE-FOCK ENERGY IN STEP  14 IS      -0.4999999773574638 [AU]
 ======================================================================
 ITERATION STEP  15
 CPU time [min]:     4.618                   Wall time [min]:     3.313
 
 ALPHA OCC:   1   0   0   0   0   0   0   0
 BETA  OCC:   0   0   0   0   0   0   0   0
 ***HARTREE-FOCK ENERGY IN STEP  15 IS      -0.4999999773574624 [AU]
 ======================================================================
 ITERATION STEP  16
 CPU time [min]:     4.915                   Wall time [min]:     3.511
 
 ALPHA OCC:   1   0   0   0   0   0   0   0
 BETA  OCC:   0   0   0   0   0   0   0   0
 ***HARTREE-FOCK ENERGY IN STEP  16 IS      -0.4999999773574628 [AU]
 ======================================================================
 ITERATION STEP  17
 CPU time [min]:     5.268                   Wall time [min]:     3.711
 
 ALPHA OCC:   1   0   0   0   0   0   0   0
 BETA  OCC:   0   0   0   0   0   0   0   0
 ***HARTREE-FOCK ENERGY IN STEP  17 IS      -0.4999999773574627 [AU]
 ======================================================================
 ITERATION STEP  18
 CPU time [min]:     5.579                   Wall time [min]:     3.911
 
 ALPHA OCC:   1   0   0   0   0   0   0   0
 BETA  OCC:   0   0   0   0   0   0   0   0
 ***HARTREE-FOCK ENERGY IN STEP  18 IS      -0.4999999773574635 [AU]
 ======================================================================
 ITERATION STEP  19
 CPU time [min]:     5.924                   Wall time [min]:     4.109
 
 ALPHA OCC:   1   0   0   0   0   0   0   0
 BETA  OCC:   0   0   0   0   0   0   0   0
 ***HARTREE-FOCK ENERGY IN STEP  19 IS      -0.4999999773574637 [AU]
 ======================================================================
 ITERATION STEP  20
 CPU time [min]:     6.248                   Wall time [min]:     4.307
 
 ALPHA OCC:   1   0   0   0   0   0   0   0
 BETA  OCC:   0   0   0   0   0   0   0   0
 ***HARTREE-FOCK ENERGY IN STEP  20 IS      -0.4999999773574638 [AU]
 ======================================================================
 ITERATION STEP  21
 CPU time [min]:     6.551                   Wall time [min]:     4.505
 
 ALPHA OCC:   1   0   0   0   0   0   0   0
 BETA  OCC:   0   0   0   0   0   0   0   0
 ***HARTREE-FOCK ENERGY IN STEP  21 IS      -0.4999999773574631 [AU]
 ======================================================================
 ITERATION STEP  22
 CPU time [min]:     6.888                   Wall time [min]:     4.702
 
 ALPHA OCC:   1   0   0   0   0   0   0   0
 BETA  OCC:   0   0   0   0   0   0   0   0
 ***HARTREE-FOCK ENERGY IN STEP  22 IS      -0.4999999773574632 [AU]
 ======================================================================
 ITERATION STEP  23
 CPU time [min]:     7.208                   Wall time [min]:     4.900
 
 ALPHA OCC:   1   0   0   0   0   0   0   0
 BETA  OCC:   0   0   0   0   0   0   0   0
 ***HARTREE-FOCK ENERGY IN STEP  23 IS      -0.4999999773574625 [AU]
 ======================================================================
 ITERATION STEP  24
 CPU time [min]:     7.515                   Wall time [min]:     5.098
 
 ALPHA OCC:   1   0   0   0   0   0   0   0
 BETA  OCC:   0   0   0   0   0   0   0   0
 ***HARTREE-FOCK ENERGY IN STEP  24 IS      -0.4999999773574630 [AU]
 ======================================================================
 ITERATION STEP  25
 CPU time [min]:     7.850                   Wall time [min]:     5.296
 
 ALPHA OCC:   1   0   0   0   0   0   0   0
 BETA  OCC:   0   0   0   0   0   0   0   0
 ***HARTREE-FOCK ENERGY IN STEP  25 IS      -0.4999999773574646 [AU]
 ======================================================================
 ITERATION STEP  26
 CPU time [min]:     8.183                   Wall time [min]:     5.495
 
 ALPHA OCC:   1   0   0   0   0   0   0   0
 BETA  OCC:   0   0   0   0   0   0   0   0
 ***HARTREE-FOCK ENERGY IN STEP  26 IS      -0.4999999773574630 [AU]
 ======================================================================
 ITERATION STEP  27
 CPU time [min]:     8.532                   Wall time [min]:     5.694
 
 ALPHA OCC:   1   0   0   0   0   0   0   0
 BETA  OCC:   0   0   0   0   0   0   0   0
 ***HARTREE-FOCK ENERGY IN STEP  27 IS      -0.4999999773574649 [AU]
 ======================================================================
 ITERATION STEP  28
 CPU time [min]:     8.834                   Wall time [min]:     5.892
 
 ALPHA OCC:   1   0   0   0   0   0   0   0
 BETA  OCC:   0   0   0   0   0   0   0   0
 ***HARTREE-FOCK ENERGY IN STEP  28 IS      -0.4999999773574629 [AU]
 ======================================================================
 ITERATION STEP  29
 CPU time [min]:     9.165                   Wall time [min]:     6.090
 
 ALPHA OCC:   1   0   0   0   0   0   0   0
 BETA  OCC:   0   0   0   0   0   0   0   0
 ***HARTREE-FOCK ENERGY IN STEP  29 IS      -0.4999999773574636 [AU]
 ======================================================================
 ITERATION STEP  30
 CPU time [min]:     9.487                   Wall time [min]:     6.287
 
 ALPHA OCC:   1   0   0   0   0   0   0   0
 BETA  OCC:   0   0   0   0   0   0   0   0
 ***HARTREE-FOCK ENERGY IN STEP  30 IS      -0.4999999773574631 [AU]
 ======================================================================
 ITERATION STEP  31
 CPU time [min]:     9.793                   Wall time [min]:     6.485
 
 ALPHA OCC:   1   0   0   0   0   0   0   0
 BETA  OCC:   0   0   0   0   0   0   0   0
 ***HARTREE-FOCK ENERGY IN STEP  31 IS      -0.4999999773574635 [AU]
 ======================================================================
 ITERATION STEP  32
 CPU time [min]:    10.088                   Wall time [min]:     6.683
 
 ALPHA OCC:   1   0   0   0   0   0   0   0
 BETA  OCC:   0   0   0   0   0   0   0   0
 ***HARTREE-FOCK ENERGY IN STEP  32 IS      -0.4999999773574634 [AU]
 ======================================================================
 ITERATION STEP  33
 CPU time [min]:    10.419                   Wall time [min]:     6.880
 
 ALPHA OCC:   1   0   0   0   0   0   0   0
 BETA  OCC:   0   0   0   0   0   0   0   0
 ***HARTREE-FOCK ENERGY IN STEP  33 IS      -0.4999999773574626 [AU]
 ======================================================================
 ITERATION STEP  34
 CPU time [min]:    10.738                   Wall time [min]:     7.079
 
 ALPHA OCC:   1   0   0   0   0   0   0   0
 BETA  OCC:   0   0   0   0   0   0   0   0
 ***HARTREE-FOCK ENERGY IN STEP  34 IS      -0.4999999773574638 [AU]
 ======================================================================
 ITERATION STEP  35
 CPU time [min]:    11.032                   Wall time [min]:     7.276
 
 ALPHA OCC:   1   0   0   0   0   0   0   0
 BETA  OCC:   0   0   0   0   0   0   0   0
 ***HARTREE-FOCK ENERGY IN STEP  35 IS      -0.4999999773574630 [AU]
 ======================================================================
 ITERATION STEP  36
 CPU time [min]:    11.364                   Wall time [min]:     7.474
 
 ALPHA OCC:   1   0   0   0   0   0   0   0
 BETA  OCC:   0   0   0   0   0   0   0   0
 ***HARTREE-FOCK ENERGY IN STEP  36 IS      -0.4999999773574645 [AU]
 ======================================================================
 ITERATION STEP  37
 CPU time [min]:    11.683                   Wall time [min]:     7.672
 
 ALPHA OCC:   1   0   0   0   0   0   0   0
 BETA  OCC:   0   0   0   0   0   0   0   0
 ***HARTREE-FOCK ENERGY IN STEP  37 IS      -0.4999999773574638 [AU]
 ======================================================================
 ITERATION STEP  38
 CPU time [min]:    11.985                   Wall time [min]:     7.870
 
 ALPHA OCC:   1   0   0   0   0   0   0   0
 BETA  OCC:   0   0   0   0   0   0   0   0
 ***HARTREE-FOCK ENERGY IN STEP  38 IS      -0.4999999773574634 [AU]
 ======================================================================
 ITERATION STEP  39
 CPU time [min]:    12.325                   Wall time [min]:     8.068
 
 ALPHA OCC:   1   0   0   0   0   0   0   0
 BETA  OCC:   0   0   0   0   0   0   0   0
 ***HARTREE-FOCK ENERGY IN STEP  39 IS      -0.4999999773574634 [AU]
 ======================================================================
 
 SUCCESS...
 THE SCF ITERATION HAS CONVERGED!
 
                   Ag  B1g B2g B3g Au  B1u B2u B3u 
 FINAL ALPHA OCC:   1   0   0   0   0   0   0   0
 FINAL BETA  OCC:   0   0   0   0   0   0   0   0
 
 ***FINAL HARTREE-FOCK ENERGY:     -0.4999999773574634 [AU]
 
 RETURNING FROM SCF ALGORITHM
 ======================================================================
 
 ************************ 2017-12-24 13:51:49 *************************
                      Normal termination of mrcc.
 **********************************************************************
--- SharcNET Job Epilogue ---
Job completed successfully.
               jobid: 1494616
               resid: 2976267
         exit status: 0
      allocated time: 1737.89
           user time: 8516.49
         system time: 353.83
peak rss=16280449024; peak vsz=16305205248 (bytes)
atime=1737.89; utime=8516.49; stime=353.83; exit=0
