 **********************************************************************
                          MRCC program system
 **********************************************************************
 
                              Written by
    Mihaly Kallay, Zoltan Rolik, Jozsef Csontos, Istvan Ladjanszki,
       Lorant Szegedy, Bence Ladoczki, Gyula Samu, Klara Petrov,
        Mate Farkas, Peter Nagy, David Mester, and Bence Hegely
 
        Department of Physical Chemistry and Materials Science
            Budapest University of Technology and Economics
                  Budapest P.O.Box 91, H-1521 Hungary
 
                              www.mrcc.hu

 ************************ 2017-12-24 01:01:20 *************************
 Executing minp...

 Reading input from MINP...
 
 Input file:
 
# TITLE
basis=aV8Z-FELLER
uncontract=off
#iface=cfour
itol=18
scftol=16
cctol=7
calc=SCF
mem=22GB
core=corr
ccmaxit=999
scfmaxit=9999
scftype=ROHF

scfiguess=restart
rohftype=standard
mult=2
charge=+0
rest=2

geom
H

 
 
 Checking keyword combinations...
 
 Keywords:
 
 active=none
 agrid=ld0006-ld0590
 basis=av8z-feller
 basopt=off
 bpcompo=0.985
 bpcompv=0.98
 bpdfo=0.985
 bpocc=0.985
 bppdo=0.985
 bppdv=0.98
 bpedo=0.985
 bpedv=0.98
 calc=scf
 ccmaxit=999
 ccprog=mrcc
 cctol=7
 charge=+0
 cialg=disk
 ciguess=off
 cmpgrp=auto
 core=corr
 corembed=off
 dboc=off
 dendec=cholesky
 dens=0
 dfalg=invsqrt
 dfbasis_cor=none
 dfbasis_scf=none
 dfintran=ovirt
 dft=off
 diag=david
 domrad=10.d0
 drpaalg=fit
 ecp=auto
 edisp=off
 embed=off
 epert=none
 eps=0.975
 excrad=0.d0
 excrad_fin=0.000000000D+00
 freq=off
 gauss=spher
 geom=zmat
 gopt=off
 ghost=none
 gtol=7
 grtol=10
 hamilton=dc
 iface=none
 intalg=auto
 itol=18
 lcorthr=loose
 lccrest=off
 lmp2dens=on
 lnoepso=3e-5
 lnoepsv=1e-6
 localcc=off
 locintrf=disk
 maxact=off
 maxex=0
 bfbasis=none
 mem=22gb
 molden=on
 mulmet=0
 mult=2
 nacto=0
 nactv=0
 naf_cor=off
 naf_scf=off
 nafalg=albe
 naftyp=
 nchol=auto
 ndeps=1e-3
 nstate=1
 nsing=0
 ntrip=0
 occ=
 optalg=
 optmaxit=50
 optetol=1e-6
 optgtol=1e-4
 optstol=1e-3
 orblocc=off
 orbloco=off
 orblocv=off
 osveps=1e-3
 ovirt=off
 ovosnorb=80.0
 ptfreq=0.0
 popul=off
 pressure=100000
 qmmm=off
 refdet=none
 rest=2
 rgrid=log3
 rohftype=standard
 scspe=1.d0
 scsps=1.2d0
 scspt=0.33333333333333
 scfalg=auto
 scfdamp=off
 scfdiis=on
 scfdiis_end=9999
 scfdiis_start=1
 scfdiis_step=1
 scfdtol=17
 scfext=10
 scfiguess=restart
 scflshift=off
 scfmaxit=9999
 scftype=rohf
 scftol=16
 spairtol=1e-4
 symm=
 talg=occ
 temp=298.15
 test=off
 tprint=off
 uncontract=off
 unit=angs
 verbosity=2
 wpairtol=0.100000000E-05

 ************************ 2017-12-24 01:01:20 *************************
 Executing integ...

 Allocation of 22.0 Gbytes of memory...
 
 Number of atoms:            1
 Charge:                     0
 Number of electrons:        1
 Number of core electrons:   0
 Spin multiplicity:          2
 
                 Cartesian coordinates [bohr]      Atomic mass [AMU]  Z
   1  H     0.00000000    0.00000000    0.00000000     1.007825       1
 
 This molecule is a spherical top.
 
 Rotational constants [cm-1]: 

 
 Point group: Dxh 
 Computational point group: D2h 
 
 Cartesian coordinates in standard orientation [bohr]
   1  H     0.00000000    0.00000000    0.00000000
 
 Nuclear repulsion energy [au]:          0.000000000000
 
 
 Basis set information:
 
 Maximum angular momentum: i
 Maximum number of contracted Gaussians:    9
 Maximum number of primitive Gaussians:    16
 Spherical harmonic GTOs are used.
 
 
 Conventional basis set:
 
    1  H  av8z-feller [ 16s 8p 7d 6f 5g 4h 3i | 9s 8p 7d 6f 5g 4h 3i ]
 
 Total number of basis functions:   238
 
 
 Character table for point group D2h:
 
          E  C2z C2y C2x  i  Qxy Qxz Qyz 
    Ag    1   1   1   1   1   1   1   1
    B1g   1   1  -1  -1   1   1  -1  -1
    B2g   1  -1   1  -1   1  -1   1  -1
    B3g   1  -1  -1   1   1  -1  -1   1
    Au    1   1   1   1  -1  -1  -1  -1
    B1u   1   1  -1  -1  -1  -1   1   1
    B2u   1  -1   1  -1  -1   1  -1   1
    B3u   1  -1  -1   1  -1   1   1  -1
 
 Number of basis functions per irrep:
    Ag     50
    B1g    26
    B2g    26
    B3g    26
    Au     14
    B1u    32
    B2u    32
    B3u    32
 
 
 Calculation of overlap integrals...
 CPU time [min]:     0.027                   Wall time [min]:     0.038
 Calculation of kinetic energy integrals...
 CPU time [min]:     0.042                   Wall time [min]:     0.039
 Calculation of nuclear attraction integrals...
 CPU time [min]:     0.046                   Wall time [min]:     0.039
 
 Calculation of prescreening integrals...
 CPU time [min]:     2.282                   Wall time [min]:     0.248
 
 Calculation of two-electron integrals...
   1% done.
  18% done.
  49% done.
 100% done.
 CPU time [min]:    35.237                   Wall time [min]:     3.030

 ************************ 2017-12-24 01:04:23 *************************
 Executing scf...

 Allocation of 22.0 Gbytes of memory...
 ======================================================================
 ITERATION STEP   1
 CPU time [min]:     0.030                   Wall time [min]:     0.014
 
 ALPHA OCC:   1   0   0   0   0   0   0   0
 BETA  OCC:   0   0   0   0   0   0   0   0
 ***HARTREE-FOCK ENERGY IN STEP   1 IS      -0.4999999668930244 [AU]
 ======================================================================
 ITERATION STEP   2
 CPU time [min]:     0.182                   Wall time [min]:     0.053
 
 ALPHA OCC:   1   0   0   0   0   0   0   0
 BETA  OCC:   0   0   0   0   0   0   0   0
 ***HARTREE-FOCK ENERGY IN STEP   2 IS      -0.4999999668930337 [AU]
 ======================================================================
 ITERATION STEP   3
 CPU time [min]:     0.340                   Wall time [min]:     0.092
 
 ALPHA OCC:   1   0   0   0   0   0   0   0
 BETA  OCC:   0   0   0   0   0   0   0   0
 ***HARTREE-FOCK ENERGY IN STEP   3 IS      -0.4999999668930329 [AU]
 ======================================================================
 ITERATION STEP   4
 CPU time [min]:     0.494                   Wall time [min]:     0.131
 
 ALPHA OCC:   1   0   0   0   0   0   0   0
 BETA  OCC:   0   0   0   0   0   0   0   0
 ***HARTREE-FOCK ENERGY IN STEP   4 IS      -0.4999999668930326 [AU]
 ======================================================================
 ITERATION STEP   5
 CPU time [min]:     0.665                   Wall time [min]:     0.171
 
 ALPHA OCC:   1   0   0   0   0   0   0   0
 BETA  OCC:   0   0   0   0   0   0   0   0
 ***HARTREE-FOCK ENERGY IN STEP   5 IS      -0.4999999668930323 [AU]
 ======================================================================
 ITERATION STEP   6
 CPU time [min]:     0.801                   Wall time [min]:     0.210
 
 ALPHA OCC:   1   0   0   0   0   0   0   0
 BETA  OCC:   0   0   0   0   0   0   0   0
 ***HARTREE-FOCK ENERGY IN STEP   6 IS      -0.4999999668930336 [AU]
 ======================================================================
 ITERATION STEP   7
 CPU time [min]:     0.965                   Wall time [min]:     0.248
 
 ALPHA OCC:   1   0   0   0   0   0   0   0
 BETA  OCC:   0   0   0   0   0   0   0   0
 ***HARTREE-FOCK ENERGY IN STEP   7 IS      -0.4999999668930316 [AU]
 ======================================================================
 ITERATION STEP   8
 CPU time [min]:     1.119                   Wall time [min]:     0.289
 
 ALPHA OCC:   1   0   0   0   0   0   0   0
 BETA  OCC:   0   0   0   0   0   0   0   0
 ***HARTREE-FOCK ENERGY IN STEP   8 IS      -0.4999999668930318 [AU]
 ======================================================================
 ITERATION STEP   9
 CPU time [min]:     1.297                   Wall time [min]:     0.328
 
 ALPHA OCC:   1   0   0   0   0   0   0   0
 BETA  OCC:   0   0   0   0   0   0   0   0
 ***HARTREE-FOCK ENERGY IN STEP   9 IS      -0.4999999668930313 [AU]
 ======================================================================
 ITERATION STEP  10
 CPU time [min]:     1.437                   Wall time [min]:     0.367
 
 ALPHA OCC:   1   0   0   0   0   0   0   0
 BETA  OCC:   0   0   0   0   0   0   0   0
 ***HARTREE-FOCK ENERGY IN STEP  10 IS      -0.4999999668930332 [AU]
 ======================================================================
 ITERATION STEP  11
 CPU time [min]:     1.588                   Wall time [min]:     0.407
 
 ALPHA OCC:   1   0   0   0   0   0   0   0
 BETA  OCC:   0   0   0   0   0   0   0   0
 ***HARTREE-FOCK ENERGY IN STEP  11 IS      -0.4999999668930323 [AU]
 ======================================================================
 ITERATION STEP  12
 CPU time [min]:     1.743                   Wall time [min]:     0.446
 
 ALPHA OCC:   1   0   0   0   0   0   0   0
 BETA  OCC:   0   0   0   0   0   0   0   0
 ***HARTREE-FOCK ENERGY IN STEP  12 IS      -0.4999999668930315 [AU]
 ======================================================================
 ITERATION STEP  13
 CPU time [min]:     1.909                   Wall time [min]:     0.485
 
 ALPHA OCC:   1   0   0   0   0   0   0   0
 BETA  OCC:   0   0   0   0   0   0   0   0
 ***HARTREE-FOCK ENERGY IN STEP  13 IS      -0.4999999668930327 [AU]
 ======================================================================
 ITERATION STEP  14
 CPU time [min]:     2.036                   Wall time [min]:     0.524
 
 ALPHA OCC:   1   0   0   0   0   0   0   0
 BETA  OCC:   0   0   0   0   0   0   0   0
 ***HARTREE-FOCK ENERGY IN STEP  14 IS      -0.4999999668930316 [AU]
 ======================================================================
 ITERATION STEP  15
 CPU time [min]:     2.179                   Wall time [min]:     0.563
 
 ALPHA OCC:   1   0   0   0   0   0   0   0
 BETA  OCC:   0   0   0   0   0   0   0   0
 ***HARTREE-FOCK ENERGY IN STEP  15 IS      -0.4999999668930327 [AU]
 ======================================================================
 ITERATION STEP  16
 CPU time [min]:     2.338                   Wall time [min]:     0.602
 
 ALPHA OCC:   1   0   0   0   0   0   0   0
 BETA  OCC:   0   0   0   0   0   0   0   0
 ***HARTREE-FOCK ENERGY IN STEP  16 IS      -0.4999999668930332 [AU]
 ======================================================================
 ITERATION STEP  17
 CPU time [min]:     2.464                   Wall time [min]:     0.641
 
 ALPHA OCC:   1   0   0   0   0   0   0   0
 BETA  OCC:   0   0   0   0   0   0   0   0
 ***HARTREE-FOCK ENERGY IN STEP  17 IS      -0.4999999668930342 [AU]
 ======================================================================
 ITERATION STEP  18
 CPU time [min]:     2.604                   Wall time [min]:     0.680
 
 ALPHA OCC:   1   0   0   0   0   0   0   0
 BETA  OCC:   0   0   0   0   0   0   0   0
 ***HARTREE-FOCK ENERGY IN STEP  18 IS      -0.4999999668930313 [AU]
 ======================================================================
 ITERATION STEP  19
 CPU time [min]:     2.757                   Wall time [min]:     0.719
 
 ALPHA OCC:   1   0   0   0   0   0   0   0
 BETA  OCC:   0   0   0   0   0   0   0   0
 ***HARTREE-FOCK ENERGY IN STEP  19 IS      -0.4999999668930322 [AU]
 ======================================================================
 ITERATION STEP  20
 CPU time [min]:     2.925                   Wall time [min]:     0.759
 
 ALPHA OCC:   1   0   0   0   0   0   0   0
 BETA  OCC:   0   0   0   0   0   0   0   0
 ***HARTREE-FOCK ENERGY IN STEP  20 IS      -0.4999999668930327 [AU]
 ======================================================================
 ITERATION STEP  21
 CPU time [min]:     3.079                   Wall time [min]:     0.799
 
 ALPHA OCC:   1   0   0   0   0   0   0   0
 BETA  OCC:   0   0   0   0   0   0   0   0
 ***HARTREE-FOCK ENERGY IN STEP  21 IS      -0.4999999668930312 [AU]
 ======================================================================
 ITERATION STEP  22
 CPU time [min]:     3.226                   Wall time [min]:     0.840
 
 ALPHA OCC:   1   0   0   0   0   0   0   0
 BETA  OCC:   0   0   0   0   0   0   0   0
 ***HARTREE-FOCK ENERGY IN STEP  22 IS      -0.4999999668930311 [AU]
 ======================================================================
 ITERATION STEP  23
 CPU time [min]:     3.388                   Wall time [min]:     0.879
 
 ALPHA OCC:   1   0   0   0   0   0   0   0
 BETA  OCC:   0   0   0   0   0   0   0   0
 ***HARTREE-FOCK ENERGY IN STEP  23 IS      -0.4999999668930323 [AU]
 ======================================================================
 ITERATION STEP  24
 CPU time [min]:     3.516                   Wall time [min]:     0.918
 
 ALPHA OCC:   1   0   0   0   0   0   0   0
 BETA  OCC:   0   0   0   0   0   0   0   0
 ***HARTREE-FOCK ENERGY IN STEP  24 IS      -0.4999999668930330 [AU]
 ======================================================================
 ITERATION STEP  25
 CPU time [min]:     3.660                   Wall time [min]:     0.956
 
 ALPHA OCC:   1   0   0   0   0   0   0   0
 BETA  OCC:   0   0   0   0   0   0   0   0
 ***HARTREE-FOCK ENERGY IN STEP  25 IS      -0.4999999668930322 [AU]
 ======================================================================
 ITERATION STEP  26
 CPU time [min]:     3.822                   Wall time [min]:     0.995
 
 ALPHA OCC:   1   0   0   0   0   0   0   0
 BETA  OCC:   0   0   0   0   0   0   0   0
 ***HARTREE-FOCK ENERGY IN STEP  26 IS      -0.4999999668930312 [AU]
 ======================================================================
 ITERATION STEP  27
 CPU time [min]:     3.951                   Wall time [min]:     1.034
 
 ALPHA OCC:   1   0   0   0   0   0   0   0
 BETA  OCC:   0   0   0   0   0   0   0   0
 ***HARTREE-FOCK ENERGY IN STEP  27 IS      -0.4999999668930316 [AU]
 ======================================================================
 ITERATION STEP  28
 CPU time [min]:     4.102                   Wall time [min]:     1.072
 
 ALPHA OCC:   1   0   0   0   0   0   0   0
 BETA  OCC:   0   0   0   0   0   0   0   0
 ***HARTREE-FOCK ENERGY IN STEP  28 IS      -0.4999999668930324 [AU]
 ======================================================================
 ITERATION STEP  29
 CPU time [min]:     4.226                   Wall time [min]:     1.111
 
 ALPHA OCC:   1   0   0   0   0   0   0   0
 BETA  OCC:   0   0   0   0   0   0   0   0
 ***HARTREE-FOCK ENERGY IN STEP  29 IS      -0.4999999668930340 [AU]
 ======================================================================
 ITERATION STEP  30
 CPU time [min]:     4.376                   Wall time [min]:     1.149
 
 ALPHA OCC:   1   0   0   0   0   0   0   0
 BETA  OCC:   0   0   0   0   0   0   0   0
 ***HARTREE-FOCK ENERGY IN STEP  30 IS      -0.4999999668930319 [AU]
 ======================================================================
 ITERATION STEP  31
 CPU time [min]:     4.501                   Wall time [min]:     1.187
 
 ALPHA OCC:   1   0   0   0   0   0   0   0
 BETA  OCC:   0   0   0   0   0   0   0   0
 ***HARTREE-FOCK ENERGY IN STEP  31 IS      -0.4999999668930317 [AU]
 ======================================================================
 ITERATION STEP  32
 CPU time [min]:     4.651                   Wall time [min]:     1.226
 
 ALPHA OCC:   1   0   0   0   0   0   0   0
 BETA  OCC:   0   0   0   0   0   0   0   0
 ***HARTREE-FOCK ENERGY IN STEP  32 IS      -0.4999999668930320 [AU]
 ======================================================================
 ITERATION STEP  33
 CPU time [min]:     4.777                   Wall time [min]:     1.264
 
 ALPHA OCC:   1   0   0   0   0   0   0   0
 BETA  OCC:   0   0   0   0   0   0   0   0
 ***HARTREE-FOCK ENERGY IN STEP  33 IS      -0.4999999668930326 [AU]
 ======================================================================
 ITERATION STEP  34
 CPU time [min]:     4.927                   Wall time [min]:     1.302
 
 ALPHA OCC:   1   0   0   0   0   0   0   0
 BETA  OCC:   0   0   0   0   0   0   0   0
 ***HARTREE-FOCK ENERGY IN STEP  34 IS      -0.4999999668930326 [AU]
 ======================================================================
 
 SUCCESS...
 THE SCF ITERATION HAS CONVERGED!
 
                   Ag  B1g B2g B3g Au  B1u B2u B3u 
 FINAL ALPHA OCC:   1   0   0   0   0   0   0   0
 FINAL BETA  OCC:   0   0   0   0   0   0   0   0
 
 ***FINAL HARTREE-FOCK ENERGY:     -0.4999999668930326 [AU]
 
 RETURNING FROM SCF ALGORITHM
 ======================================================================
 
 ************************ 2017-12-24 01:05:45 *************************
                      Normal termination of mrcc.
 **********************************************************************
--- SharcNET Job Epilogue ---
Job completed successfully.
               jobid: 1494593
               resid: 2976245
         exit status: 0
      allocated time: 266.223
           user time: 2330.75
         system time: 97.21
peak rss=5504364544; peak vsz=5504364544 (bytes)
atime=266.223; utime=2330.75; stime=97.21; exit=0
