 **********************************************************************
                          MRCC program system
 **********************************************************************
 
                              Written by
    Mihaly Kallay, Zoltan Rolik, Jozsef Csontos, Istvan Ladjanszki,
       Lorant Szegedy, Bence Ladoczki, Gyula Samu, Klara Petrov,
        Mate Farkas, Peter Nagy, David Mester, and Bence Hegely
 
        Department of Physical Chemistry and Materials Science
            Budapest University of Technology and Economics
                  Budapest P.O.Box 91, H-1521 Hungary
 
                              www.mrcc.hu

 ************************ 2017-12-24 00:35:27 *************************
 Executing minp...

 Reading input from MINP...
 
 Input file:
 
# TITLE
basis=aV8Z-FELLER
uncontract=off
#iface=cfour
itol=18
scftol=16
cctol=7
calc=SCF
mem=22GB
core=corr
ccmaxit=999
scfmaxit=9999
scftype=ROHF

scfiguess=restart
rohftype=standard
mult=2
charge=+0
rest=2

geom
H

 
 
 Checking keyword combinations...
 
 Keywords:
 
 active=none
 agrid=ld0006-ld0590
 basis=av8z-feller
 basopt=off
 bpcompo=0.985
 bpcompv=0.98
 bpdfo=0.985
 bpocc=0.985
 bppdo=0.985
 bppdv=0.98
 bpedo=0.985
 bpedv=0.98
 calc=scf
 ccmaxit=999
 ccprog=mrcc
 cctol=7
 charge=+0
 cialg=disk
 ciguess=off
 cmpgrp=auto
 core=corr
 corembed=off
 dboc=off
 dendec=cholesky
 dens=0
 dfalg=invsqrt
 dfbasis_cor=none
 dfbasis_scf=none
 dfintran=ovirt
 dft=off
 diag=david
 domrad=10.d0
 drpaalg=fit
 ecp=auto
 edisp=off
 embed=off
 epert=none
 eps=0.975
 excrad=0.d0
 excrad_fin=0.000000000D+00
 freq=off
 gauss=spher
 geom=zmat
 gopt=off
 ghost=none
 gtol=7
 grtol=10
 hamilton=dc
 iface=none
 intalg=auto
 itol=18
 lcorthr=loose
 lccrest=off
 lmp2dens=on
 lnoepso=3e-5
 lnoepsv=1e-6
 localcc=off
 locintrf=disk
 maxact=off
 maxex=0
 bfbasis=none
 mem=22gb
 molden=on
 mulmet=0
 mult=2
 nacto=0
 nactv=0
 naf_cor=off
 naf_scf=off
 nafalg=albe
 naftyp=
 nchol=auto
 ndeps=1e-3
 nstate=1
 nsing=0
 ntrip=0
 occ=
 optalg=
 optmaxit=50
 optetol=1e-6
 optgtol=1e-4
 optstol=1e-3
 orblocc=off
 orbloco=off
 orblocv=off
 osveps=1e-3
 ovirt=off
 ovosnorb=80.0
 ptfreq=0.0
 popul=off
 pressure=100000
 qmmm=off
 refdet=none
 rest=2
 rgrid=log3
 rohftype=standard
 scspe=1.d0
 scsps=1.2d0
 scspt=0.33333333333333
 scfalg=auto
 scfdamp=off
 scfdiis=on
 scfdiis_end=9999
 scfdiis_start=1
 scfdiis_step=1
 scfdtol=17
 scfext=10
 scfiguess=restart
 scflshift=off
 scfmaxit=9999
 scftype=rohf
 scftol=16
 spairtol=1e-4
 symm=
 talg=occ
 temp=298.15
 test=off
 tprint=off
 uncontract=off
 unit=angs
 verbosity=2
 wpairtol=0.100000000E-05

 ************************ 2017-12-24 00:35:28 *************************
 Executing integ...

 Allocation of 22.0 Gbytes of memory...
 
 Number of atoms:            1
 Charge:                     0
 Number of electrons:        1
 Number of core electrons:   0
 Spin multiplicity:          2
 
                 Cartesian coordinates [bohr]      Atomic mass [AMU]  Z
   1  H     0.00000000    0.00000000    0.00000000     1.007825       1
 
 This molecule is a spherical top.
 
 Rotational constants [cm-1]: 

 
 Point group: Dxh 
 Computational point group: D2h 
 
 Cartesian coordinates in standard orientation [bohr]
   1  H     0.00000000    0.00000000    0.00000000
 
 Nuclear repulsion energy [au]:          0.000000000000
 
 
 Basis set information:
 
 Maximum angular momentum: k
 Maximum number of contracted Gaussians:    9
 Maximum number of primitive Gaussians:    16
 Spherical harmonic GTOs are used.
 
    1  H  av8z-feller [ 16s 8p 7d 6f 5g 4h 3i 2k | 9s 8p 7d 6f 5g 4h 3i 2k ]
 
 Total number of basis functions:   268
 
 
 Character table for point group D2h:
 
          E  C2z C2y C2x  i  Qxy Qxz Qyz 
    Ag    1   1   1   1   1   1   1   1
    B1g   1   1  -1  -1   1   1  -1  -1
    B2g   1  -1   1  -1   1  -1   1  -1
    B3g   1  -1  -1   1   1  -1  -1   1
    Au    1   1   1   1  -1  -1  -1  -1
    B1u   1   1  -1  -1  -1  -1   1   1
    B2u   1  -1   1  -1  -1   1  -1   1
    B3u   1  -1  -1   1  -1   1   1  -1
 
 Number of basis functions per irrep:
    Ag     50
    B1g    26
    B2g    26
    B3g    26
    Au     20
    B1u    40
    B2u    40
    B3u    40
 
 
 Calculation of overlap integrals...
 CPU time [min]:     0.034                   Wall time [min]:     0.027
 Calculation of kinetic energy integrals...
 CPU time [min]:     0.051                   Wall time [min]:     0.028
 Calculation of nuclear attraction integrals...
 CPU time [min]:     0.076                   Wall time [min]:     0.029
 
 Calculation of prescreening integrals...
 CPU time [min]:     2.984                   Wall time [min]:     0.323
 
 Calculation of two-electron integrals...
   3% done.
  30% done.
  62% done.
 100% done.
 CPU time [min]:    58.735                   Wall time [min]:     5.174

 ************************ 2017-12-24 00:40:39 *************************
 Executing scf...

 Allocation of 22.0 Gbytes of memory...
 ======================================================================
 ITERATION STEP   1
 CPU time [min]:     0.039                   Wall time [min]:     0.018
 
 ALPHA OCC:   1   0   0   0   0   0   0   0
 BETA  OCC:   0   0   0   0   0   0   0   0
 ***HARTREE-FOCK ENERGY IN STEP   1 IS      25.8042098074382338 [AU]
 ======================================================================
 ITERATION STEP   2
 CPU time [min]:     0.208                   Wall time [min]:     0.142
 
 ALPHA OCC:   1   0   0   0   0   0   0   0
 BETA  OCC:   0   0   0   0   0   0   0   0
 ***HARTREE-FOCK ENERGY IN STEP   2 IS      -0.1389464744695485 [AU]
 ======================================================================
 ITERATION STEP   3
 CPU time [min]:     0.407                   Wall time [min]:     0.201
 
 ALPHA OCC:   1   0   0   0   0   0   0   0
 BETA  OCC:   0   0   0   0   0   0   0   0
 ***HARTREE-FOCK ENERGY IN STEP   3 IS      -0.4976988944601146 [AU]
 ======================================================================
 ITERATION STEP   4
 CPU time [min]:     0.564                   Wall time [min]:     0.265
 
 ALPHA OCC:   1   0   0   0   0   0   0   0
 BETA  OCC:   0   0   0   0   0   0   0   0
 ***HARTREE-FOCK ENERGY IN STEP   4 IS      -0.4984507134691842 [AU]
 ======================================================================
 ITERATION STEP   5
 CPU time [min]:     0.718                   Wall time [min]:     0.324
 
 ALPHA OCC:   1   0   0   0   0   0   0   0
 BETA  OCC:   0   0   0   0   0   0   0   0
 ***HARTREE-FOCK ENERGY IN STEP   5 IS      -0.4996994535470729 [AU]
 ======================================================================
 ITERATION STEP   6
 CPU time [min]:     0.888                   Wall time [min]:     0.383
 
 ALPHA OCC:   1   0   0   0   0   0   0   0
 BETA  OCC:   0   0   0   0   0   0   0   0
 ***HARTREE-FOCK ENERGY IN STEP   6 IS      -0.4999928688436969 [AU]
 ======================================================================
 ITERATION STEP   7
 CPU time [min]:     1.077                   Wall time [min]:     0.442
 
 ALPHA OCC:   1   0   0   0   0   0   0   0
 BETA  OCC:   0   0   0   0   0   0   0   0
 ***HARTREE-FOCK ENERGY IN STEP   7 IS      -0.4999999573311747 [AU]
 ======================================================================
 ITERATION STEP   8
 CPU time [min]:     1.230                   Wall time [min]:     0.501
 
 ALPHA OCC:   1   0   0   0   0   0   0   0
 BETA  OCC:   0   0   0   0   0   0   0   0
 ***HARTREE-FOCK ENERGY IN STEP   8 IS      -0.4999999666572171 [AU]
 ======================================================================
 ITERATION STEP   9
 CPU time [min]:     1.413                   Wall time [min]:     0.560
 
 ALPHA OCC:   1   0   0   0   0   0   0   0
 BETA  OCC:   0   0   0   0   0   0   0   0
 ***HARTREE-FOCK ENERGY IN STEP   9 IS      -0.4999999668924135 [AU]
 ======================================================================
 ITERATION STEP  10
 CPU time [min]:     1.586                   Wall time [min]:     0.619
 
 ALPHA OCC:   1   0   0   0   0   0   0   0
 BETA  OCC:   0   0   0   0   0   0   0   0
 ***HARTREE-FOCK ENERGY IN STEP  10 IS      -0.4999999668930252 [AU]
 ======================================================================
 ITERATION STEP  11
 CPU time [min]:     1.773                   Wall time [min]:     0.679
 
 ALPHA OCC:   1   0   0   0   0   0   0   0
 BETA  OCC:   0   0   0   0   0   0   0   0
 ***HARTREE-FOCK ENERGY IN STEP  11 IS      -0.4999999668930261 [AU]
 ======================================================================
 ITERATION STEP  12
 CPU time [min]:     1.921                   Wall time [min]:     0.738
 
 ALPHA OCC:   1   0   0   0   0   0   0   0
 BETA  OCC:   0   0   0   0   0   0   0   0
 ***HARTREE-FOCK ENERGY IN STEP  12 IS      -0.4999999668930240 [AU]
 ======================================================================
 ITERATION STEP  13
 CPU time [min]:     2.089                   Wall time [min]:     0.797
 
 ALPHA OCC:   1   0   0   0   0   0   0   0
 BETA  OCC:   0   0   0   0   0   0   0   0
 ***HARTREE-FOCK ENERGY IN STEP  13 IS      -0.4999999668930247 [AU]
 ======================================================================
 ITERATION STEP  14
 CPU time [min]:     2.263                   Wall time [min]:     0.856
 
 ALPHA OCC:   1   0   0   0   0   0   0   0
 BETA  OCC:   0   0   0   0   0   0   0   0
 ***HARTREE-FOCK ENERGY IN STEP  14 IS      -0.4999999668930237 [AU]
 ======================================================================
 ITERATION STEP  15
 CPU time [min]:     2.456                   Wall time [min]:     0.915
 
 ALPHA OCC:   1   0   0   0   0   0   0   0
 BETA  OCC:   0   0   0   0   0   0   0   0
 ***HARTREE-FOCK ENERGY IN STEP  15 IS      -0.4999999668930263 [AU]
 ======================================================================
 ITERATION STEP  16
 CPU time [min]:     2.615                   Wall time [min]:     0.977
 
 ALPHA OCC:   1   0   0   0   0   0   0   0
 BETA  OCC:   0   0   0   0   0   0   0   0
 ***HARTREE-FOCK ENERGY IN STEP  16 IS      -0.4999999668930276 [AU]
 ======================================================================
 ITERATION STEP  17
 CPU time [min]:     2.792                   Wall time [min]:     1.036
 
 ALPHA OCC:   1   0   0   0   0   0   0   0
 BETA  OCC:   0   0   0   0   0   0   0   0
 ***HARTREE-FOCK ENERGY IN STEP  17 IS      -0.4999999668930248 [AU]
 ======================================================================
 ITERATION STEP  18
 CPU time [min]:     2.985                   Wall time [min]:     1.095
 
 ALPHA OCC:   1   0   0   0   0   0   0   0
 BETA  OCC:   0   0   0   0   0   0   0   0
 ***HARTREE-FOCK ENERGY IN STEP  18 IS      -0.4999999668930258 [AU]
 ======================================================================
 ITERATION STEP  19
 CPU time [min]:     3.147                   Wall time [min]:     1.154
 
 ALPHA OCC:   1   0   0   0   0   0   0   0
 BETA  OCC:   0   0   0   0   0   0   0   0
 ***HARTREE-FOCK ENERGY IN STEP  19 IS      -0.4999999668930249 [AU]
 ======================================================================
 ITERATION STEP  20
 CPU time [min]:     3.326                   Wall time [min]:     1.212
 
 ALPHA OCC:   1   0   0   0   0   0   0   0
 BETA  OCC:   0   0   0   0   0   0   0   0
 ***HARTREE-FOCK ENERGY IN STEP  20 IS      -0.4999999668930239 [AU]
 ======================================================================
 ITERATION STEP  21
 CPU time [min]:     3.521                   Wall time [min]:     1.271
 
 ALPHA OCC:   1   0   0   0   0   0   0   0
 BETA  OCC:   0   0   0   0   0   0   0   0
 ***HARTREE-FOCK ENERGY IN STEP  21 IS      -0.4999999668930246 [AU]
 ======================================================================
 ITERATION STEP  22
 CPU time [min]:     3.685                   Wall time [min]:     1.330
 
 ALPHA OCC:   1   0   0   0   0   0   0   0
 BETA  OCC:   0   0   0   0   0   0   0   0
 ***HARTREE-FOCK ENERGY IN STEP  22 IS      -0.4999999668930255 [AU]
 ======================================================================
 ITERATION STEP  23
 CPU time [min]:     3.867                   Wall time [min]:     1.389
 
 ALPHA OCC:   1   0   0   0   0   0   0   0
 BETA  OCC:   0   0   0   0   0   0   0   0
 ***HARTREE-FOCK ENERGY IN STEP  23 IS      -0.4999999668930259 [AU]
 ======================================================================
 ITERATION STEP  24
 CPU time [min]:     4.017                   Wall time [min]:     1.448
 
 ALPHA OCC:   1   0   0   0   0   0   0   0
 BETA  OCC:   0   0   0   0   0   0   0   0
 ***HARTREE-FOCK ENERGY IN STEP  24 IS      -0.4999999668930247 [AU]
 ======================================================================
 ITERATION STEP  25
 CPU time [min]:     4.184                   Wall time [min]:     1.507
 
 ALPHA OCC:   1   0   0   0   0   0   0   0
 BETA  OCC:   0   0   0   0   0   0   0   0
 ***HARTREE-FOCK ENERGY IN STEP  25 IS      -0.4999999668930260 [AU]
 ======================================================================
 ITERATION STEP  26
 CPU time [min]:     4.369                   Wall time [min]:     1.565
 
 ALPHA OCC:   1   0   0   0   0   0   0   0
 BETA  OCC:   0   0   0   0   0   0   0   0
 ***HARTREE-FOCK ENERGY IN STEP  26 IS      -0.4999999668930254 [AU]
 ======================================================================
 ITERATION STEP  27
 CPU time [min]:     4.524                   Wall time [min]:     1.624
 
 ALPHA OCC:   1   0   0   0   0   0   0   0
 BETA  OCC:   0   0   0   0   0   0   0   0
 ***HARTREE-FOCK ENERGY IN STEP  27 IS      -0.4999999668930254 [AU]
 ======================================================================
 
 SUCCESS...
 THE SCF ITERATION HAS CONVERGED!
 
                   Ag  B1g B2g B3g Au  B1u B2u B3u 
 FINAL ALPHA OCC:   1   0   0   0   0   0   0   0
 FINAL BETA  OCC:   0   0   0   0   0   0   0   0
 
 ***FINAL HARTREE-FOCK ENERGY:     -0.4999999668930254 [AU]
 
 RETURNING FROM SCF ALGORITHM
 ======================================================================
 
 ************************ 2017-12-24 00:42:22 *************************
                      Normal termination of mrcc.
 **********************************************************************
--- SharcNET Job Epilogue ---
Job completed successfully.
               jobid: 1494578
               resid: 2976230
         exit status: 0
      allocated time: 416.165
           user time: 3671.53
         system time: 146.54
peak rss=8165572608; peak vsz=8165572608 (bytes)
atime=416.165; utime=3671.53; stime=146.54; exit=0
