 --invoking executable--
/project1/nike/cfour_v2.00beta_May2019xnmol_noLABBASIS/bin/xjoda


   *************************************************************************
         <<<     CCCCCC     CCCCCC   |||     CCCCCC     CCCCCC   >>>
       <<<      CCC        CCC       |||    CCC        CCC         >>>
      <<<      CCC        CCC        |||   CCC        CCC            >>>
    <<<        CCC        CCC        |||   CCC        CCC              >>>
      <<<      CCC        CCC        |||   CCC        CCC            >>>
       <<<      CCC        CCC       |||    CCC        CCC         >>>
         <<<     CCCCCC     CCCCCC   |||     CCCCCC     CCCCCC   >>>
   *************************************************************************

     ****************************************************************
     * CFOUR Coupled-Cluster techniques for Computational Chemistry *
     ****************************************************************
 

   Department of Chemistry                Institut fuer Physikalische Chemie
   University of Texas at Austin          Universitaet Mainz
   Austin, TX  78712, USA                 D-55099 Mainz, Germany
 
                       Version 2.00beta
 
                     req298                                            
                     Sun Mar  8 18:55:31 EDT 2020                      
                     integer*8 version is running
 
********************************************************************************
*                          Input from ZMAT file                                *
********************************************************************************
TITLE                                                                           
C 0.000100 0.765700 0.000000                                                    
C -0.000100 -0.769300 0.000000                                                  
H -0.134892 1.160801 -1.011192                                                  
H -0.808178 1.160889 0.622373                                                   
H 0.943359 1.160660 0.388723                                                    
H 0.808348 -1.164489 -0.622151                                                  
H 0.134598 -1.164401 1.011231                                                   
H -0.943239 -1.164260 -0.389014                                                 
                                                                                
R=2.90091857391                                                                 
RH=2.06736038034                                                                
A=111.17                                                                        
                                                                                
*ACES2(CALC=CCSD(T)                                                             
#UNITS=BOHR                                                                     
#GEOM=r1=CC(r0)=1.5351A_r2=CH(r0)=1.0940_A1=111.17_from9-42ofCRC2016_didntWorkSo
COORD=CARTESIAN                                                                 
#COORD=INTERNAL                                                                 
PRINT=4                                                                         
JODA_PRINT=4                                                                    
INPUT_MRCC=OFF                                                                  
#CC_PROG=MRCC                                                                   
#FROZEN_CORE=ON                                                                 
DROPMO=1>2                                                                      
CONTRACTION=GENERAL                                                             
#CONTRACTION=SEGMENTED                                                          
RELATIVISTIC=OFF                                                                
#EXCITE=EOMEE                                                                   
#ESTATE_CONV=5                                                                  
#ESTATE_SYM=2/2/2/2/2/2/2/2                                                     
XFORM_TOL=18                                                                    
SAVE_INTS=ON                                                                    
SCF_EXPORDER=6                                                                  
SCF_EXPSTART=5                                                                  
#SCF_DAMPING=1000                                                               
SCF_EXTRAPOLATION=ON                                                            
SCF_CONV=12                                                                     
SCF_MAXCYC=99999                                                                
CC_CONV=9                                                                       
CC_MAXCYC=999                                                                   
T3_EXTRAPOL=ON                                                                  
REFERENCE=ROHF                                                                  
CHARGE=+1                                                                       
MULT=2                                                                          
ABCDTYPE=STANDARD                                                               
#OCCUPATION=3-2-2-0-1-0-0-0/3-1-1-0-1-0-0-0                                     
MEM=4                                                                           
MEM_UNIT=GB                                                                     
BASIS=SPECIAL)                                                                  
                                                                                
C:def2-TZVPP                                                                    
C:def2-TZVPP                                                                    
H:def2-TZVPP                                                                    
H:def2-TZVPP                                                                    
H:def2-TZVPP                                                                    
H:def2-TZVPP                                                                    
H:def2-TZVPP                                                                    
H:def2-TZVPP                                                                    
                                                                                
********************************************************************************
  @GTFLGS-W, Keyword #UNITS not known and is ignored.
  @GTFLGS-W, Keyword #GEOM not known and is ignored.
  @GTFLGS-W, Keyword #COORD not known and is ignored.
  @GTFLGS-W, Keyword #CC_PROG not known and is ignored.
  @GTFLGS-W, Keyword #FROZEN_CORE not known and is ignored.
  @GTFLGS-W, Keyword #CONTRACTION not known and is ignored.
  @GTFLGS-W, Keyword #EXCITE not known and is ignored.
  @GTFLGS-W, Keyword #ESTATE_CONV not known and is ignored.
  @GTFLGS-W, Keyword #ESTATE_SYM not known and is ignored.
  @GTFLGS-W, Keyword #SCF_DAMPING not known and is ignored.
  @GTFLGS-W, Keyword #OCCUPATION not known and is ignored.
    -------------------------------------------------------------------
                    CFOUR Control Parameters 
    -------------------------------------------------------------------
        External           Internal           Value            Units
          Name               Name
    -------------------------------------------------------------------
       ABCDTYPE             IABCDT         STANDARD     [  0]   ***   
       ANHARMONIC           IANHAR         OFF          [  0]   ***   
       ANH_ALGORIT          IANALG         STANDARD     [  0]   ***   
       ANH_DERIVAT          IANDER         SECOND       [  1]   ***   
       ANH_STEPSIZ          ICUBST             50000          x 10-6  
       ANH_SYMMETR          IANHSM         ABELIAN      [  0]   ***   
       AO_LADDERS           IAOLAD         SINGLEPASS   [  1]   ***   
       BASIS                IBASIS         SPECIAL      [  0]   ***   
       BREIT                IBREIT         OFF          [  0]   ***   
       BRUCK_CONV           IBRTOL          10D-  4             ***   
       BRUECKNER            IBRKNR             OFF      [  0]   ***   
       BUFFERSIZE           IBUFFS            600               ***   
       CACHE_RECS           ICHREC             10               ***   
       CALCLEVEL            ICLLVL           CCSD(T)    [ 22]   ***   
       CCORBOPT             ICCORB             OFF      [  0] x 0.01  
       CC_CONV              ICCCNV          10D-  9             ***   
       CC_EXPORDER          ICCEOR              5               ***   
       CC_EXTRAPOL          ICCEXT             DIIS     [  1]   ***   
       CC_MAXCYC            ICCCYC            999              cycles 
       CC_PROGRAM           ICCPRO         VCC          [  0]   ***   
       CHARGE               ICHRGE              1               ***   
       CHOLESKY             ICHOLE         OFF          [  0]   ***   
       CIS_CONV             ICISTL              5               ***   
       COMM_SIZE            IPSIZE            ***               ***   
       CONSTANT             ICONST         OLD          [  1]   ***   
       CONTINUUM            ICONTU         NONE         [  0]   ***   
       CONTRACTION          ICNTYP          GENERAL     [  1]   ***   
       COORDINATES          ICOORD         CARTESIAN    [  1]   ***   
       CPHF_CONVER          ICPHFT          10D- 16             ***   
       CPHF_MAXCYC          ICPHFC             64              cycles 
       CUBIC                ICUBIC         OFF          [  0]   ***   
       CURVILINEAR          ICURVY            OFF       [  0]   ***   
       DBOC                 IDBOC          OFF          [  0]   ***   
       DCT                  IDCT           OFF          [  0]   ***   
       DERIV_LEV            IDRLVL            ZERO      [  0]   ***   
       DIAG_MRCC            IEOMST          10D-  0             ***   
       DIFF_TYPE            IDIFTY         RELAXED      [  0]   ***   
       DIRECT               IDIRCT         OFF          [  0]   ***   
       DROPMO               IDRPMO A   1,  2,
                                   B   1,  2,
       ECP                  IECP           OFF          [  0]   ***   
       EIGENVECTOR          IVEC                1               ***   
       EL_ANHARM            IELANH         OFF          [  0]   ***   
       EOMFOLLOW            IEOMSR         ENERGY       [  0]   ***   
       EOM_MRCC             IMRCCE         NEW          [  1]   ***   
       EOM_NONIT            EOMNON         OFF          [  0]   ***   
       EOM_NSING            IEOMSI          10D-  0             ***   
       EOM_NSTATES          IMRCCD         DAVIDSON     [  0]   ***   
       EOM_NTRIP            IEOMTR          10D-  0             ***   
       EOM_ORDER            IEXORD         ENERGY       [  0]   ***   
       ESTATE_CONV          IEXTOL          10D-  5             ***   
       ESTATE_DIAG          IEXDIG         ITERATIVE    [  0]   ***   
       ESTATE_LOCK          IESLOC         ON           [  1]   ***   
       ESTATE_MAXC          IEXMXC             20               ***   
       ESTATE_PROP          IEXPRP         OFF          [  0]   ***   
       EVAL_HESS            IRECAL              0            # of cyc.
       EXCITATION           IEXCIT              0               ***   
       EXCITE               IEXCIT         NONE         [  0]   ***   
       FCGRADNEW            IFCGNW         OFF          [  0]   ***   
       FC_FIELD             IFINFC              0             x 10-6  
       FD_CALTYPE           IFDCAL         GRADONLY     [  0]   ***   
       FD_PROJECT           IFDPRJ         OFF          [  1]   ***   
       FD_STEPSIZE          IDISFD              0            10-4 bohr
       FD_USEGROUP          IFDGRP         FULL         [  0]   ***   
       FILE_RECSIZ          IFLREC              4096           words  
       FINITE_PERT          IFIPER              0             x 10-6  
       FIXGEOM              IFIXGM         OFF          [  0]   ***   
       FOCK                 IFOCK          AO           [  1]   ***   
       FREQ_ALGORI          IVIALG         STANDARD     [  0]   ***   
       FROZEN_CORE          IFROCO         OFF          [  0]   ***   
       FROZEN_VIRT          IFROVI         OFF          [  0]   ***   
       GAMMA_ABCD           IGABCD         STORE        [  0]   ***   
       GAMMA_ABCI           IGABCI         STORE        [  0]   ***   
       GENBAS_1             IGNBS1              0               ***   
       GENBAS_2             IGNBS2              0               ***   
       GENBAS_3             IGNBS3              0               ***   
       GENBAS_4             IGNBS4              0               ***   
       GEO_CONV             ICONTL              5              H/bohr 
       GEO_MAXCYC           IOPTCY             50               ***   
       GEO_MAXSTEP          IMXSTP            300            millibohr
       GEO_METHOD           INR            SINGLE_POINT [  5]   ***   
       GIAO                 IGIAO          OFF          [  1]   ***   
       GIMIC                IGIMIC         OFF          [  0]   ***   
       GRID                 IGRID          OFF          [  0]   ***   
       GRID_ALGO            IGALGO         SERIAL       [  0]   ***   
       GUESS                IGUESS            MOREAD    [  0]   ***   
       HBAR                 IHBAR              OFF      [  0]   ***   
       HESS_TYPE            IHESTP         SCF          [  0]   ***   
       HF2_FILE             IHF2Fl         USE          [  1]   ***   
       HFSTABILITY          ISTABL         OFF          [  0]   ***   
       INCORE               INCORE             OFF      [  0]   ***   
       INPUT_MRCC           IMRCC          OFF          [  0]   ***   
       INTEGRALS            INTTYP             VMOL     [  1]   ***   
       JODA_PRINT           IJPRNT              4               ***   
       LINDEP_TOL           ILINDP              8               ***   
       LINEQ_CONV           IZTACN          10D-  7           cycles  
       LINEQ_EXPOR          ILMAXD              5               ***   
       LINEQ_MAXCY          ILMAXC             50               ***   
       LINEQ_TYPE           ILTYPE         DIIS         [  1]   ***   
       LOCK_ORBOCC          ILOCOC             OFF      [  0]   ***   
       MEMORY_SIZE          IMEMSZ         500000000           words  
       MEM_UNIT             IMEMU          GB           [  3]   ***   
       MRCC                 IMRCCC         OFF          [  0]   ***   
       MULTIPLICTY          IMULTP              2               ***   
       NEGEVAL              IDIE             ABORT      [  0]   ***   
       NEWNORM              INEWNO         OFF          [  0]   ***   
       NON-HF               INONHF              ON      [  1]   ***   
       NTOP_TAMP            ITOPT2             15               ***   
       NUC_MODEL            INUCMO         POINT        [  0]   ***   
       OCCUPATION           IOCCU   ESTIMATED BY SCF 
       OPEN-SHELL           IOPEN          SPIN-ORBITAL [  0]   ***   
       ORBITALS             IORBTP         SEMICANONICAL[  1]   ***   
       PARALLEL             IPARAL         ON           [  1]   ***   
       PARA_INT             IPINTS         ON           [  1]   ***   
       PARA_PRINT           IPPRIN              0               ***   
       PERT_ORB             IPTORB         STANDARD     [  0]   ***   
       POINTS               IGRDFD              0               ***   
       PRINT                IPRNT               4               ***   
       PROPS                IPROPS             OFF      [  0]   ***   
       PROP_INTEGR          IINTYP         INTERNAL     [  0]   ***   
       PSI                  IPSI           OFF          [  0]   ***   
       QUARTIC              IQUART         OFF          [  0]   ***   
       RAMAN_INT            IRAMIN         OFF          [  0]   ***   
       RAMAN_ORB            IRAMRE         UNRELAXED    [  0]   ***   
       RDO                  IRDOFM             OFF      [  0]   ***   
       REFERENCE            IREFNC             ROHF     [  2]   ***   
       RELATIVIST           IRELAT         OFF          [  0]   ***   
       RELAX_DENS           IRDENS             OFF      [  0]   ***   
       RESET_FLAGS          IRESET             OFF      [  0]   ***   
       RESTART_CC           ICCRES         OFF          [  0]   ***   
       ROT_EVEC             ROTVEC              0               ***   
       SAVE_INTS            ISVINT              ON      [  1]   ***   
       SCALE_ON             ISTCRT              0               ***   
       SCF_CONV             ISCFCV          10D- 12             ***   
       SCF_DAMPING          IDAMP               0             x 10-3  
       SCF_EXPORDE          IRPPOR              6               ***   
       SCF_EXPSTAR          IRPPLS              5               ***   
       SCF_EXTRAPO          IRPP                ON      [  1]   ***   
       SCF_MAXCYC           ISCFCY            ***              cycles 
       SCF_NOSTOP           ISCFST         OFF          [  0]   ***   
       SCF_PRINT            ISCFPR              0               ***   
       SD_FIELD             IFINSD              0             x 10-6  
       SEQUENCE             ISEQUE         OFF          [  0]   ***   
       SOPERT               IPERSO         OFF          [  0]   ***   
       SPHERICAL            IDFGHI             ON       [  1]   ***   
       SPINORBIT            ISOCAL         OFF          [  0]   ***   
       SPINROTATIO          ISRCON         OFF          [  0]   ***   
       SPIN_FLIP            ISPFLP         OFF          [  0]   ***   
       SPIN_ORBIT           ISPORB         OFF          [  0]   ***   
       SPIN_SCAL            ISCSMP         OFF          [  0]   ***   
       SUBGROUP             ISUBGP         DEFAULT      [  0]   ***   
       SUBGRPAXIS           ISBXYZ         X            [  0]   ***   
       SYMMETRY             ISYM             ON         [  0]   ***   
       SYM_CHECK            ISYMCK         OVERRIDE     [  1]   ***   
       T3_EXTRAPOL          IT3EXT         ON           [  1]   ***   
       TAMP_SUM             IEVERY              5               ***   
       TESTSUITE            ITESTS         OFF          [  0]   ***   
       THERMOCH             ITHERM         OFF          [  0]   ***   
       TOL_CHOLESK          ITOLCH          10D-  4             ***   
       TRANGRAD             IRESRM         OFF          [  0]   ***   
       TRANS_INV            ITRAIN         USE          [  0]   ***   
       TREAT_PERT           ITREAT         SIMULTANEOUS [  0]   ***   
       UIJ_THRESHO          IUIJTH              1               ***   
       UNITS                IUNITS         ANGSTROM     [  0]   ***   
       UNOS                 IUNOS          OFF          [  0]   ***   
       UPDATE_HESS          IHUPDT         ON           [  1]   ***   
       VIBPHASE             ISETPH         STANDARD     [  0]   ***   
       VIBRATION            IVIB              NO        [  0]   ***   
       VIB_ALGORIT          IGEALG         STANDARD     [  0]   ***   
       VNATORB              IVNORB         OFF          [  0]   ***   
       VTRAN                IVTRAN         FULL/PARTIAL [  0]   ***   
       XFIELD               IXEFLD              0             x 10-6  
       XFORM_TOL            IXFTOL          10D- 18             ***   
       YFIELD               IYEFLD              0             x 10-6  
       ZFIELD               IZEFLD              0             x 10-6  
    -------------------------------------------------------------------
  @GETXYZ-I,     8 atoms read from ZMAT.
  1  C          6    12.00000
  2  C          6    12.00000
  3  H          1     1.00783
  4  H          1     1.00783
  5  H          1     1.00783
  6  H          1     1.00783
  7  H          1     1.00783
  8  H          1     1.00783
  1  C          6    12.00000
  2  C          6    12.00000
  3  H          1     1.00783
  4  H          1     1.00783
  5  H          1     1.00783
  6  H          1     1.00783
  7  H          1     1.00783
  8  H          1     1.00783
   12.0000000000
   12.0000000000
    1.0078250350
    1.0078250350
    1.0078250350
    1.0078250350
    1.0078250350
    1.0078250350
 After translation to center of mass coordinates 
        0.000189226190    1.450365104612    0.000001901538
       -0.000188719114   -1.450365104612    0.000001901538
       -0.254908736288    2.196997942655   -1.910874438349
       -1.527235146482    2.197164238589    1.176116665385
        1.782690774349    2.196731491215    0.734582063831
        1.527556907067   -2.197164238589   -1.175693343022
        0.254353663767   -2.196997942655    1.910951940759
       -1.782463500090   -2.196731491215   -0.735128171173
  Inertia tensor (amu*bohr**2)
   90.90789   -0.00754   -0.00089
   -0.00754   22.47392    0.00068
   -0.00089    0.00068   90.90992
    Inertia tensor:
       90.907893610737   -0.007543767526   -0.000889730559
       -0.007543767526   22.473916610935    0.000678356410
       -0.000889730559    0.000678356410   90.909916316083
    Principal axis orientation for molecular system: 
        1.450365116569    0.000033203131   -0.000004865413
       -1.450365116551   -0.000031385870    0.000001486350
        2.196988767934   -0.913428328482    1.697677409080
        2.196984215418   -1.013800253038   -1.639724885071
        2.196920710766    1.927021526102   -0.057912679931
       -2.196984184145    1.014250761187    1.639442441971
       -2.196988829890    0.912936375270   -1.697945912637
       -2.196920680300   -1.927001718856    0.058503860521
    Diagonalized inertia tensor:
       22.473915772632    0.000000000000    0.000000000000
        0.000000000000   90.907558625827    0.000000000000
        0.000000000000    0.000000000000   90.910252139298
    Eigenvectors of inertia tensor: 
        0.000110234110    0.935587509319    0.353094888457
        0.999999993875   -0.000099634190   -0.000048195560
       -0.000009910841    0.353094891608   -0.935587514572
 factor:   60.1997200000000     
   Rotational constants (in cm-1): 
          0.6621884615             0.6622080816             2.6786484656
   Rotational constants (in MHz): 
      19851.9134348531         19852.5016301260         80303.8720118270
  @SYMMETRY-I, Handedness of inertial frame: 1.00000
  @SYMMETRY-I, The symmetry group is 1-fold degenerate.
  @SYMMETRY-I, The molecule belongs to an Abelian group.
   Principal axis orientation for molecule:
        1.450365116569    0.000033203131   -0.000004865413
       -1.450365116551   -0.000031385870    0.000001486350
        2.196988767934   -0.913428328482    1.697677409080
        2.196984215418   -1.013800253038   -1.639724885071
        2.196920710766    1.927021526102   -0.057912679931
       -2.196984184145    1.014250761187    1.639442441971
       -2.196988829890    0.912936375270   -1.697945912637
       -2.196920680300   -1.927001718856    0.058503860521
  Symmetry bits:    0   0   0
********************************************************************************
   The full molecular point group is C1  .
   The largest Abelian subgroup of the full molecular point group is C1  .
   The computational point group is C1  .
********************************************************************************
 ----------------------------------------------------------------
 Z-matrix   Atomic            Coordinates (in bohr)
  Symbol    Number           X              Y              Z
 ----------------------------------------------------------------
     C         6         1.45036512     0.00003320    -0.00000487
     C         6        -1.45036512    -0.00003139     0.00000149
     H         1         2.19698877    -0.91342833     1.69767741
     H         1         2.19698422    -1.01380025    -1.63972489
     H         1         2.19692071     1.92702153    -0.05791268
     H         1        -2.19698418     1.01425076     1.63944244
     H         1        -2.19698883     0.91293638    -1.69794591
     H         1        -2.19692068    -1.92700172     0.05850386
 ----------------------------------------------------------------
   Interatomic distance matrix (Angstroms) 
 
                 C             C             H             H             H    
                [ 1]        [ 2]        [ 3]        [ 4]        [ 5]
  C    [ 1]     0.00000
  C    [ 2]     1.53500     0.00000
  H    [ 3]     1.09400     2.18311     0.00000
  H    [ 4]     1.09400     2.18311     1.76688     0.00000
  H    [ 5]     1.09400     2.18311     1.76703     1.76705     0.00000
  H    [ 6]     2.18311     1.09400     2.53930     3.09344     2.53898
  H    [ 7]     2.18311     1.09400     3.09344     2.53910     2.53920
  H    [ 8]     2.18311     1.09400     2.53898     2.53919     3.09344
 
                 H             H             H    
                [ 6]        [ 7]        [ 8]
  H    [ 6]     0.00000
  H    [ 7]     1.76688     0.00000
  H    [ 8]     1.76703     1.76704     0.00000
  Inertia tensor (amu*bohr**2)
   22.47392    0.00000    0.00000
    0.00000   90.90756    0.00000
    0.00000    0.00000   90.91025
   Rotational constants (in cm-1): 
          2.6786484656             0.6622080816             0.6621884615
   Rotational constants (in MHz): 
      80303.8720118268         19852.5016301260         19851.9134348531
  @GTFLGS-W, Keyword #UNITS not known and is ignored.
  @GTFLGS-W, Keyword #GEOM not known and is ignored.
  @GTFLGS-W, Keyword #COORD not known and is ignored.
  @GTFLGS-W, Keyword #CC_PROG not known and is ignored.
  @GTFLGS-W, Keyword #FROZEN_CORE not known and is ignored.
  @GTFLGS-W, Keyword #CONTRACTION not known and is ignored.
  @GTFLGS-W, Keyword #EXCITE not known and is ignored.
  @GTFLGS-W, Keyword #ESTATE_CONV not known and is ignored.
  @GTFLGS-W, Keyword #ESTATE_SYM not known and is ignored.
  @GTFLGS-W, Keyword #SCF_DAMPING not known and is ignored.
  @GTFLGS-W, Keyword #OCCUPATION not known and is ignored.
  There are  146 basis functions.
 @GEOPT-W, Archive file not created for single-point calculation.
  @CHECKOUT-I, Total execution time (CPU/WALL):        0.90/       1.30 seconds.
--executable xjoda finished with status     0 in        1.36 seconds (walltime).
 --invoking executable--
/project1/nike/cfour_v2.00beta_May2019xnmol_noLABBASIS/bin/xvmol
Running with 1 threads/proc

********************************************************************************
                   INPUT FROM MOL FILE                                          
********************************************************************************
INTGRL        1    0    1    0    0    0    0    0    0
         *** CFOUR Program System (Release V0.1) *** 
TITLE
    8    0            0.10E-08              0    0
   9999.00      3.00
          6.00000000    1    4    1    1    1    1
C #1   1.450365116569431   0.000033203131150  -0.000004865413358
   11    5
   13575.3496820000       2.224581435200000E-004  0.000000000000000E+000
  0.000000000000000E+000  0.000000000000000E+000  0.000000000000000E+000
   2035.23336800000       1.723273825200000E-003  0.000000000000000E+000
  0.000000000000000E+000  0.000000000000000E+000  0.000000000000000E+000
   463.225623590000       8.925571531400001E-003  0.000000000000000E+000
  0.000000000000000E+000  0.000000000000000E+000  0.000000000000000E+000
   131.200195980000       3.572798450200000E-002  0.000000000000000E+000
  0.000000000000000E+000  0.000000000000000E+000  0.000000000000000E+000
   42.8530158910000       0.110762599310000       0.000000000000000E+000
  0.000000000000000E+000  0.000000000000000E+000  0.000000000000000E+000
   15.5841857660000       0.242956276260000       0.000000000000000E+000
  0.000000000000000E+000  0.000000000000000E+000  0.000000000000000E+000
   6.20671385080000       0.000000000000000E+000  0.414402634480000     
  0.000000000000000E+000  0.000000000000000E+000  0.000000000000000E+000
   2.57648965270000       0.000000000000000E+000  0.237449686550000     
  0.000000000000000E+000  0.000000000000000E+000  0.000000000000000E+000
  0.576963394190000       0.000000000000000E+000  0.000000000000000E+000
   1.00000000000000       0.000000000000000E+000  0.000000000000000E+000
  0.229728313580000       0.000000000000000E+000  0.000000000000000E+000
  0.000000000000000E+000   1.00000000000000       0.000000000000000E+000
  9.516444002799999E-002  0.000000000000000E+000  0.000000000000000E+000
  0.000000000000000E+000  0.000000000000000E+000   1.00000000000000     
    6    3
   34.6972322440000       5.333365780500000E-003  0.000000000000000E+000
  0.000000000000000E+000
   7.95826228260000       3.586410909200000E-002  0.000000000000000E+000
  0.000000000000000E+000
   2.37808268830000       0.142158733290000       0.000000000000000E+000
  0.000000000000000E+000
  0.814332081830000       0.342704718450000       0.000000000000000E+000
  0.000000000000000E+000
  0.288875472530000       0.000000000000000E+000  0.464458224330000     
  0.000000000000000E+000
  0.100568236710000       0.000000000000000E+000  0.000000000000000E+000
  0.249557898740000     
    2    2
   1.09700000000000        1.00000000000000       0.000000000000000E+000
  0.318000000000000       0.000000000000000E+000   1.00000000000000     
    1    1
  0.761000000000000        1.00000000000000     
          6.00000000    1    4    1    1    1    1
C #2  -1.450365116551225  -0.000031385869935   0.000001486349558
   11    5
   13575.3496820000       2.224581435200000E-004  0.000000000000000E+000
  0.000000000000000E+000  0.000000000000000E+000  0.000000000000000E+000
   2035.23336800000       1.723273825200000E-003  0.000000000000000E+000
  0.000000000000000E+000  0.000000000000000E+000  0.000000000000000E+000
   463.225623590000       8.925571531400001E-003  0.000000000000000E+000
  0.000000000000000E+000  0.000000000000000E+000  0.000000000000000E+000
   131.200195980000       3.572798450200000E-002  0.000000000000000E+000
  0.000000000000000E+000  0.000000000000000E+000  0.000000000000000E+000
   42.8530158910000       0.110762599310000       0.000000000000000E+000
  0.000000000000000E+000  0.000000000000000E+000  0.000000000000000E+000
   15.5841857660000       0.242956276260000       0.000000000000000E+000
  0.000000000000000E+000  0.000000000000000E+000  0.000000000000000E+000
   6.20671385080000       0.000000000000000E+000  0.414402634480000     
  0.000000000000000E+000  0.000000000000000E+000  0.000000000000000E+000
   2.57648965270000       0.000000000000000E+000  0.237449686550000     
  0.000000000000000E+000  0.000000000000000E+000  0.000000000000000E+000
  0.576963394190000       0.000000000000000E+000  0.000000000000000E+000
   1.00000000000000       0.000000000000000E+000  0.000000000000000E+000
  0.229728313580000       0.000000000000000E+000  0.000000000000000E+000
  0.000000000000000E+000   1.00000000000000       0.000000000000000E+000
  9.516444002799999E-002  0.000000000000000E+000  0.000000000000000E+000
  0.000000000000000E+000  0.000000000000000E+000   1.00000000000000     
    6    3
   34.6972322440000       5.333365780500000E-003  0.000000000000000E+000
  0.000000000000000E+000
   7.95826228260000       3.586410909200000E-002  0.000000000000000E+000
  0.000000000000000E+000
   2.37808268830000       0.142158733290000       0.000000000000000E+000
  0.000000000000000E+000
  0.814332081830000       0.342704718450000       0.000000000000000E+000
  0.000000000000000E+000
  0.288875472530000       0.000000000000000E+000  0.464458224330000     
  0.000000000000000E+000
  0.100568236710000       0.000000000000000E+000  0.000000000000000E+000
  0.249557898740000     
    2    2
   1.09700000000000        1.00000000000000       0.000000000000000E+000
  0.318000000000000       0.000000000000000E+000   1.00000000000000     
    1    1
  0.761000000000000        1.00000000000000     
          1.00000000    1    3    1    1    1
H #3   2.196988767933528  -0.913428328481715   1.697677409080477
    5    3
   34.0613410000000       6.025197800000000E-003  0.000000000000000E+000
  0.000000000000000E+000
   5.12357460000000       4.502109400000000E-002  0.000000000000000E+000
  0.000000000000000E+000
   1.16466260000000       0.201897260000000       0.000000000000000E+000
  0.000000000000000E+000
  0.327230410000000       0.000000000000000E+000   1.00000000000000     
  0.000000000000000E+000
  0.103072410000000       0.000000000000000E+000  0.000000000000000E+000
   1.00000000000000     
    2    2
   1.40700000000000        1.00000000000000       0.000000000000000E+000
  0.388000000000000       0.000000000000000E+000   1.00000000000000     
    1    1
   1.05700000000000        1.00000000000000     
          1.00000000    1    3    1    1    1
H #4   2.196984215418168  -1.013800253038412  -1.639724885071047
    5    3
   34.0613410000000       6.025197800000000E-003  0.000000000000000E+000
  0.000000000000000E+000
   5.12357460000000       4.502109400000000E-002  0.000000000000000E+000
  0.000000000000000E+000
   1.16466260000000       0.201897260000000       0.000000000000000E+000
  0.000000000000000E+000
  0.327230410000000       0.000000000000000E+000   1.00000000000000     
  0.000000000000000E+000
  0.103072410000000       0.000000000000000E+000  0.000000000000000E+000
   1.00000000000000     
    2    2
   1.40700000000000        1.00000000000000       0.000000000000000E+000
  0.388000000000000       0.000000000000000E+000   1.00000000000000     
    1    1
   1.05700000000000        1.00000000000000     
          1.00000000    1    3    1    1    1
H #5   2.196920710765939   1.927021526101669  -0.057912679931329
    5    3
   34.0613410000000       6.025197800000000E-003  0.000000000000000E+000
  0.000000000000000E+000
   5.12357460000000       4.502109400000000E-002  0.000000000000000E+000
  0.000000000000000E+000
   1.16466260000000       0.201897260000000       0.000000000000000E+000
  0.000000000000000E+000
  0.327230410000000       0.000000000000000E+000   1.00000000000000     
  0.000000000000000E+000
  0.103072410000000       0.000000000000000E+000  0.000000000000000E+000
   1.00000000000000     
    2    2
   1.40700000000000        1.00000000000000       0.000000000000000E+000
  0.388000000000000       0.000000000000000E+000   1.00000000000000     
    1    1
   1.05700000000000        1.00000000000000     
          1.00000000    1    3    1    1    1
H #6  -2.196984184144657   1.014250761186896   1.639442441971412
    5    3
   34.0613410000000       6.025197800000000E-003  0.000000000000000E+000
  0.000000000000000E+000
   5.12357460000000       4.502109400000000E-002  0.000000000000000E+000
  0.000000000000000E+000
   1.16466260000000       0.201897260000000       0.000000000000000E+000
  0.000000000000000E+000
  0.327230410000000       0.000000000000000E+000   1.00000000000000     
  0.000000000000000E+000
  0.103072410000000       0.000000000000000E+000  0.000000000000000E+000
   1.00000000000000     
    2    2
   1.40700000000000        1.00000000000000       0.000000000000000E+000
  0.388000000000000       0.000000000000000E+000   1.00000000000000     
    1    1
   1.05700000000000        1.00000000000000     
          1.00000000    1    3    1    1    1
H #7  -2.196988829889568   0.912936375269932  -1.697945912637145
    5    3
   34.0613410000000       6.025197800000000E-003  0.000000000000000E+000
  0.000000000000000E+000
   5.12357460000000       4.502109400000000E-002  0.000000000000000E+000
  0.000000000000000E+000
   1.16466260000000       0.201897260000000       0.000000000000000E+000
  0.000000000000000E+000
  0.327230410000000       0.000000000000000E+000   1.00000000000000     
  0.000000000000000E+000
  0.103072410000000       0.000000000000000E+000  0.000000000000000E+000
   1.00000000000000     
    2    2
   1.40700000000000        1.00000000000000       0.000000000000000E+000
  0.388000000000000       0.000000000000000E+000   1.00000000000000     
    1    1
   1.05700000000000        1.00000000000000     
          1.00000000    1    3    1    1    1
H #8  -2.196920680300179  -1.927001718856268   0.058503860521292
    5    3
   34.0613410000000       6.025197800000000E-003  0.000000000000000E+000
  0.000000000000000E+000
   5.12357460000000       4.502109400000000E-002  0.000000000000000E+000
  0.000000000000000E+000
   1.16466260000000       0.201897260000000       0.000000000000000E+000
  0.000000000000000E+000
  0.327230410000000       0.000000000000000E+000   1.00000000000000     
  0.000000000000000E+000
  0.103072410000000       0.000000000000000E+000  0.000000000000000E+000
   1.00000000000000     
    2    2
   1.40700000000000        1.00000000000000       0.000000000000000E+000
  0.388000000000000       0.000000000000000E+000   1.00000000000000     
    1    1
   1.05700000000000        1.00000000000000     
FINISH
                                                                                
********************************************************************************

ONE- AND TWO-ELECTRON INTEGRALS OVER SYMMETRY-ADAPTED AOS ARE CALCULATED.


    BASIS FUNCTION NOT NORMALIZED:
    CENTER (AS ORDERED IN MOL FILE): ?
    ANGULAR MOMENTUM TYPE:           S
    OFFSET WITHIN ANGULAR MOMENTUM:  1
    <CHI|CHI>:                       0.1345548646

    BASIS FUNCTION NOT NORMALIZED:
    CENTER (AS ORDERED IN MOL FILE): ?
    ANGULAR MOMENTUM TYPE:           S
    OFFSET WITHIN ANGULAR MOMENTUM:  2
    <CHI|CHI>:                       0.3991162928

    BASIS FUNCTION NOT NORMALIZED:
    CENTER (AS ORDERED IN MOL FILE): ?
    ANGULAR MOMENTUM TYPE:           P
    OFFSET WITHIN ANGULAR MOMENTUM:  1
    <CHI|CHI>:                       0.2216950870

    BASIS FUNCTION NOT NORMALIZED:
    CENTER (AS ORDERED IN MOL FILE): ?
    ANGULAR MOMENTUM TYPE:           P
    OFFSET WITHIN ANGULAR MOMENTUM:  2
    <CHI|CHI>:                       0.2157214421

    BASIS FUNCTION NOT NORMALIZED:
    CENTER (AS ORDERED IN MOL FILE): ?
    ANGULAR MOMENTUM TYPE:           P
    OFFSET WITHIN ANGULAR MOMENTUM:  3
    <CHI|CHI>:                       0.0622791448

    BASIS FUNCTION NOT NORMALIZED:
    CENTER (AS ORDERED IN MOL FILE): ?
    ANGULAR MOMENTUM TYPE:           S
    OFFSET WITHIN ANGULAR MOMENTUM:  1
    <CHI|CHI>:                       0.1345548646

    BASIS FUNCTION NOT NORMALIZED:
    CENTER (AS ORDERED IN MOL FILE): ?
    ANGULAR MOMENTUM TYPE:           S
    OFFSET WITHIN ANGULAR MOMENTUM:  2
    <CHI|CHI>:                       0.3991162928

    BASIS FUNCTION NOT NORMALIZED:
    CENTER (AS ORDERED IN MOL FILE): ?
    ANGULAR MOMENTUM TYPE:           P
    OFFSET WITHIN ANGULAR MOMENTUM:  1
    <CHI|CHI>:                       0.2216950870

    BASIS FUNCTION NOT NORMALIZED:
    CENTER (AS ORDERED IN MOL FILE): ?
    ANGULAR MOMENTUM TYPE:           P
    OFFSET WITHIN ANGULAR MOMENTUM:  2
    <CHI|CHI>:                       0.2157214421

    BASIS FUNCTION NOT NORMALIZED:
    CENTER (AS ORDERED IN MOL FILE): ?
    ANGULAR MOMENTUM TYPE:           P
    OFFSET WITHIN ANGULAR MOMENTUM:  3
    <CHI|CHI>:                       0.0622791448

    BASIS FUNCTION NOT NORMALIZED:
    CENTER (AS ORDERED IN MOL FILE): ?
    ANGULAR MOMENTUM TYPE:           S
    OFFSET WITHIN ANGULAR MOMENTUM:  1
    <CHI|CHI>:                       0.0560960211

    BASIS FUNCTION NOT NORMALIZED:
    CENTER (AS ORDERED IN MOL FILE): ?
    ANGULAR MOMENTUM TYPE:           S
    OFFSET WITHIN ANGULAR MOMENTUM:  1
    <CHI|CHI>:                       0.0560960211

    BASIS FUNCTION NOT NORMALIZED:
    CENTER (AS ORDERED IN MOL FILE): ?
    ANGULAR MOMENTUM TYPE:           S
    OFFSET WITHIN ANGULAR MOMENTUM:  1
    <CHI|CHI>:                       0.0560960211

    BASIS FUNCTION NOT NORMALIZED:
    CENTER (AS ORDERED IN MOL FILE): ?
    ANGULAR MOMENTUM TYPE:           S
    OFFSET WITHIN ANGULAR MOMENTUM:  1
    <CHI|CHI>:                       0.0560960211

    BASIS FUNCTION NOT NORMALIZED:
    CENTER (AS ORDERED IN MOL FILE): ?
    ANGULAR MOMENTUM TYPE:           S
    OFFSET WITHIN ANGULAR MOMENTUM:  1
    <CHI|CHI>:                       0.0560960211

    BASIS FUNCTION NOT NORMALIZED:
    CENTER (AS ORDERED IN MOL FILE): ?
    ANGULAR MOMENTUM TYPE:           S
    OFFSET WITHIN ANGULAR MOMENTUM:  1
    <CHI|CHI>:                       0.0560960211
CARTESIAN GAUSSIANS ARE USED.

8 TYPES OF ATOMS
0 SYMMETRY OPERATIONS


INTEGRALS LESS THAN 1e-14 ARE NEGLECTED.

ATOMIC TYPE NUMBER 1:
---------------------

    NUCLEAR CHARGE:                       6
    NUMBER OF SYMMETRY INDEPENDENT ATOMS: 1
    HIGHEST ORBITAL TYPE:                 F

    1 GROUPS OF CGTOS OF S TYPE
    1 GROUPS OF CGTOS OF P TYPE
    1 GROUPS OF CGTOS OF D TYPE
    1 GROUPS OF CGTOS OF F TYPE

    NUCLEAR COORDINATES (IN A.U.) ARE:

    C #1   1.450365116569431   0.000033203131150  -0.000004865413358

ATOMIC TYPE NUMBER 2:
---------------------

    NUCLEAR CHARGE:                       6
    NUMBER OF SYMMETRY INDEPENDENT ATOMS: 1
    HIGHEST ORBITAL TYPE:                 F

    1 GROUPS OF CGTOS OF S TYPE
    1 GROUPS OF CGTOS OF P TYPE
    1 GROUPS OF CGTOS OF D TYPE
    1 GROUPS OF CGTOS OF F TYPE

    NUCLEAR COORDINATES (IN A.U.) ARE:

    C #2  -1.450365116551225  -0.000031385869935   0.000001486349558

ATOMIC TYPE NUMBER 3:
---------------------

    NUCLEAR CHARGE:                       1
    NUMBER OF SYMMETRY INDEPENDENT ATOMS: 1
    HIGHEST ORBITAL TYPE:                 D

    1 GROUPS OF CGTOS OF S TYPE
    1 GROUPS OF CGTOS OF P TYPE
    1 GROUPS OF CGTOS OF D TYPE

    NUCLEAR COORDINATES (IN A.U.) ARE:

    H #3   2.196988767933528  -0.913428328481715   1.697677409080477

ATOMIC TYPE NUMBER 4:
---------------------

    NUCLEAR CHARGE:                       1
    NUMBER OF SYMMETRY INDEPENDENT ATOMS: 1
    HIGHEST ORBITAL TYPE:                 D

    1 GROUPS OF CGTOS OF S TYPE
    1 GROUPS OF CGTOS OF P TYPE
    1 GROUPS OF CGTOS OF D TYPE

    NUCLEAR COORDINATES (IN A.U.) ARE:

    H #4   2.196984215418168  -1.013800253038412  -1.639724885071047

ATOMIC TYPE NUMBER 5:
---------------------

    NUCLEAR CHARGE:                       1
    NUMBER OF SYMMETRY INDEPENDENT ATOMS: 1
    HIGHEST ORBITAL TYPE:                 D

    1 GROUPS OF CGTOS OF S TYPE
    1 GROUPS OF CGTOS OF P TYPE
    1 GROUPS OF CGTOS OF D TYPE

    NUCLEAR COORDINATES (IN A.U.) ARE:

    H #5   2.196920710765939   1.927021526101669  -0.057912679931329

ATOMIC TYPE NUMBER 6:
---------------------

    NUCLEAR CHARGE:                       1
    NUMBER OF SYMMETRY INDEPENDENT ATOMS: 1
    HIGHEST ORBITAL TYPE:                 D

    1 GROUPS OF CGTOS OF S TYPE
    1 GROUPS OF CGTOS OF P TYPE
    1 GROUPS OF CGTOS OF D TYPE

    NUCLEAR COORDINATES (IN A.U.) ARE:

    H #6  -2.196984184144657   1.014250761186896   1.639442441971412

ATOMIC TYPE NUMBER 7:
---------------------

    NUCLEAR CHARGE:                       1
    NUMBER OF SYMMETRY INDEPENDENT ATOMS: 1
    HIGHEST ORBITAL TYPE:                 D

    1 GROUPS OF CGTOS OF S TYPE
    1 GROUPS OF CGTOS OF P TYPE
    1 GROUPS OF CGTOS OF D TYPE

    NUCLEAR COORDINATES (IN A.U.) ARE:

    H #7  -2.196988829889568   0.912936375269932  -1.697945912637145

ATOMIC TYPE NUMBER 8:
---------------------

    NUCLEAR CHARGE:                       1
    NUMBER OF SYMMETRY INDEPENDENT ATOMS: 1
    HIGHEST ORBITAL TYPE:                 D

    1 GROUPS OF CGTOS OF S TYPE
    1 GROUPS OF CGTOS OF P TYPE
    1 GROUPS OF CGTOS OF D TYPE

    NUCLEAR COORDINATES (IN A.U.) ARE:

    H #8  -2.196920680300179  -1.927001718856268   0.058503860521292

INTERNUCLEAR DISTANCES (A):

    FOR ATOM C #1 (COORDINATES:   1.45037   0.00003  -0.00000)

    C #2 1 DISTANCE IS   1.53500
    H #3 1 DISTANCE IS   1.09400
    H #4 1 DISTANCE IS   1.09400
    H #5 1 DISTANCE IS   1.09400
    H #6 1 DISTANCE IS   2.18311
    H #7 1 DISTANCE IS   2.18311
    H #8 1 DISTANCE IS   2.18311

    FOR ATOM C #2 (COORDINATES:  -1.45037  -0.00003   0.00000)

    H #3 1 DISTANCE IS   2.18311
    H #4 1 DISTANCE IS   2.18311
    H #5 1 DISTANCE IS   2.18311
    H #6 1 DISTANCE IS   1.09400
    H #7 1 DISTANCE IS   1.09400
    H #8 1 DISTANCE IS   1.09400

    FOR ATOM H #3 (COORDINATES:   2.19699  -0.91343   1.69768)

    H #4 1 DISTANCE IS   1.76688
    H #5 1 DISTANCE IS   1.76703
    H #6 1 DISTANCE IS   2.53930
    H #7 1 DISTANCE IS   3.09344
    H #8 1 DISTANCE IS   2.53898

    FOR ATOM H #4 (COORDINATES:   2.19698  -1.01380  -1.63972)

    H #5 1 DISTANCE IS   1.76705
    H #6 1 DISTANCE IS   3.09344
    H #7 1 DISTANCE IS   2.53910
    H #8 1 DISTANCE IS   2.53919

    FOR ATOM H #5 (COORDINATES:   2.19692   1.92702  -0.05791)

    H #6 1 DISTANCE IS   2.53898
    H #7 1 DISTANCE IS   2.53920
    H #8 1 DISTANCE IS   3.09344

    FOR ATOM H #6 (COORDINATES:  -2.19698   1.01425   1.63944)

    H #7 1 DISTANCE IS   1.76688
    H #8 1 DISTANCE IS   1.76703

    FOR ATOM H #7 (COORDINATES:  -2.19699   0.91294  -1.69795)

    H #8 1 DISTANCE IS   1.76704

    FOR ATOM H #8 (COORDINATES:  -2.19692  -1.92700   0.05850)


GROUP MULTIPLICATION TABLE:

    1

GAUSSIAN BASIS INFORMATION:

ATOM                EXPONENT       COEFFICIENTS

C #1  1  S   
                  1   13575.349682   0.5435906   0.0000000   0.0000000   0.0000000   0.0000000
                  2    2035.233368   1.0145544   0.0000000   0.0000000   0.0000000   0.0000000
                  3     463.225624   1.7315732   0.0000000   0.0000000   0.0000000   0.0000000
                  4     131.200196   2.6910376   0.0000000   0.0000000   0.0000000   0.0000000
                  5      42.853016   3.6044547   0.0000000   0.0000000   0.0000000   0.0000000
                  6      15.584186   3.7025557   0.0000000   0.0000000   0.0000000   0.0000000
                  7       6.206714   0.0000000   1.8383541   0.0000000   0.0000000   0.0000000
                  8       2.576490   0.0000000   0.5447576   0.0000000   0.0000000   0.0000000
                  9       0.576963   0.0000000   0.0000000   0.4718145   0.0000000   0.0000000
                 10       0.229728   0.0000000   0.0000000   0.0000000   0.2364945   0.0000000
                 11       0.095164   0.0000000   0.0000000   0.0000000   0.0000000   0.1221142

C #1  1  X   
                 12      34.697232   1.3596651   0.0000000   0.0000000
                 13       7.958262   1.4512589   0.0000000   0.0000000
                 14       2.378083   1.2709231   0.0000000   0.0000000
                 15       0.814332   0.8025721   0.0000000   0.0000000
                 16       0.288875   0.0000000   0.3018759   0.0000000
                 17       0.100568   0.0000000   0.0000000   0.0807265

C #1  1  Y   
                 18      34.697232   1.3596651   0.0000000   0.0000000
                 19       7.958262   1.4512589   0.0000000   0.0000000
                 20       2.378083   1.2709231   0.0000000   0.0000000
                 21       0.814332   0.8025721   0.0000000   0.0000000
                 22       0.288875   0.0000000   0.3018759   0.0000000
                 23       0.100568   0.0000000   0.0000000   0.0807265

C #1  1  Z   
                 24      34.697232   1.3596651   0.0000000   0.0000000
                 25       7.958262   1.4512589   0.0000000   0.0000000
                 26       2.378083   1.2709231   0.0000000   0.0000000
                 27       0.814332   0.8025721   0.0000000   0.0000000
                 28       0.288875   0.0000000   0.3018759   0.0000000
                 29       0.100568   0.0000000   0.0000000   0.0807265

C #1  1  XX  
                 30       1.097000   3.3522136   0.0000000
                 31       0.318000   0.0000000   0.3838995

C #1  1  XY  
                 32       1.097000   3.3522136   0.0000000
                 33       0.318000   0.0000000   0.3838995

C #1  1  XZ  
                 34       1.097000   3.3522136   0.0000000
                 35       0.318000   0.0000000   0.3838995

C #1  1  YY  
                 36       1.097000   3.3522136   0.0000000
                 37       0.318000   0.0000000   0.3838995

C #1  1  YZ  
                 38       1.097000   3.3522136   0.0000000
                 39       0.318000   0.0000000   0.3838995

C #1  1  ZZ  
                 40       1.097000   3.3522136   0.0000000
                 41       0.318000   0.0000000   0.3838995

C #1  1  F300
                 42       0.761000   3.0840084

C #1  1  F210
                 43       0.761000   3.0840084

C #1  1  F201
                 44       0.761000   3.0840084

C #1  1  F120
                 45       0.761000   3.0840084

C #1  1  F111
                 46       0.761000   3.0840084

C #1  1  F102
                 47       0.761000   3.0840084

C #1  1  F030
                 48       0.761000   3.0840084

C #1  1  F021
                 49       0.761000   3.0840084

C #1  1  F012
                 50       0.761000   3.0840084

C #1  1  F003
                 51       0.761000   3.0840084

C #2  1  S   
                 52   13575.349682   0.5435906   0.0000000   0.0000000   0.0000000   0.0000000
                 53    2035.233368   1.0145544   0.0000000   0.0000000   0.0000000   0.0000000
                 54     463.225624   1.7315732   0.0000000   0.0000000   0.0000000   0.0000000
                 55     131.200196   2.6910376   0.0000000   0.0000000   0.0000000   0.0000000
                 56      42.853016   3.6044547   0.0000000   0.0000000   0.0000000   0.0000000
                 57      15.584186   3.7025557   0.0000000   0.0000000   0.0000000   0.0000000
                 58       6.206714   0.0000000   1.8383541   0.0000000   0.0000000   0.0000000
                 59       2.576490   0.0000000   0.5447576   0.0000000   0.0000000   0.0000000
                 60       0.576963   0.0000000   0.0000000   0.4718145   0.0000000   0.0000000
                 61       0.229728   0.0000000   0.0000000   0.0000000   0.2364945   0.0000000
                 62       0.095164   0.0000000   0.0000000   0.0000000   0.0000000   0.1221142

C #2  1  X   
                 63      34.697232   1.3596651   0.0000000   0.0000000
                 64       7.958262   1.4512589   0.0000000   0.0000000
                 65       2.378083   1.2709231   0.0000000   0.0000000
                 66       0.814332   0.8025721   0.0000000   0.0000000
                 67       0.288875   0.0000000   0.3018759   0.0000000
                 68       0.100568   0.0000000   0.0000000   0.0807265

C #2  1  Y   
                 69      34.697232   1.3596651   0.0000000   0.0000000
                 70       7.958262   1.4512589   0.0000000   0.0000000
                 71       2.378083   1.2709231   0.0000000   0.0000000
                 72       0.814332   0.8025721   0.0000000   0.0000000
                 73       0.288875   0.0000000   0.3018759   0.0000000
                 74       0.100568   0.0000000   0.0000000   0.0807265

C #2  1  Z   
                 75      34.697232   1.3596651   0.0000000   0.0000000
                 76       7.958262   1.4512589   0.0000000   0.0000000
                 77       2.378083   1.2709231   0.0000000   0.0000000
                 78       0.814332   0.8025721   0.0000000   0.0000000
                 79       0.288875   0.0000000   0.3018759   0.0000000
                 80       0.100568   0.0000000   0.0000000   0.0807265

C #2  1  XX  
                 81       1.097000   3.3522136   0.0000000
                 82       0.318000   0.0000000   0.3838995

C #2  1  XY  
                 83       1.097000   3.3522136   0.0000000
                 84       0.318000   0.0000000   0.3838995

C #2  1  XZ  
                 85       1.097000   3.3522136   0.0000000
                 86       0.318000   0.0000000   0.3838995

C #2  1  YY  
                 87       1.097000   3.3522136   0.0000000
                 88       0.318000   0.0000000   0.3838995

C #2  1  YZ  
                 89       1.097000   3.3522136   0.0000000
                 90       0.318000   0.0000000   0.3838995

C #2  1  ZZ  
                 91       1.097000   3.3522136   0.0000000
                 92       0.318000   0.0000000   0.3838995

C #2  1  F300
                 93       0.761000   3.0840084

C #2  1  F210
                 94       0.761000   3.0840084

C #2  1  F201
                 95       0.761000   3.0840084

C #2  1  F120
                 96       0.761000   3.0840084

C #2  1  F111
                 97       0.761000   3.0840084

C #2  1  F102
                 98       0.761000   3.0840084

C #2  1  F030
                 99       0.761000   3.0840084

C #2  1  F021
                100       0.761000   3.0840084

C #2  1  F012
                101       0.761000   3.0840084

C #2  1  F003
                102       0.761000   3.0840084

H #3  1  S   
                103      34.061341   0.2556299   0.0000000   0.0000000
                104       5.123575   0.4613600   0.0000000   0.0000000
                105       1.164663   0.6811215   0.0000000   0.0000000
                106       0.327230   0.0000000   0.3083545   0.0000000
                107       0.103072   0.0000000   0.0000000   0.1296483

H #3  1  X   
                108       1.407000   2.1842770   0.0000000
                109       0.388000   0.0000000   0.4364955

H #3  1  Y   
                110       1.407000   2.1842770   0.0000000
                111       0.388000   0.0000000   0.4364955

H #3  1  Z   
                112       1.407000   2.1842770   0.0000000
                113       0.388000   0.0000000   0.4364955

H #3  1  XX  
                114       1.057000   3.1412414

H #3  1  XY  
                115       1.057000   3.1412414

H #3  1  XZ  
                116       1.057000   3.1412414

H #3  1  YY  
                117       1.057000   3.1412414

H #3  1  YZ  
                118       1.057000   3.1412414

H #3  1  ZZ  
                119       1.057000   3.1412414

H #4  1  S   
                120      34.061341   0.2556299   0.0000000   0.0000000
                121       5.123575   0.4613600   0.0000000   0.0000000
                122       1.164663   0.6811215   0.0000000   0.0000000
                123       0.327230   0.0000000   0.3083545   0.0000000
                124       0.103072   0.0000000   0.0000000   0.1296483

H #4  1  X   
                125       1.407000   2.1842770   0.0000000
                126       0.388000   0.0000000   0.4364955

H #4  1  Y   
                127       1.407000   2.1842770   0.0000000
                128       0.388000   0.0000000   0.4364955

H #4  1  Z   
                129       1.407000   2.1842770   0.0000000
                130       0.388000   0.0000000   0.4364955

H #4  1  XX  
                131       1.057000   3.1412414

H #4  1  XY  
                132       1.057000   3.1412414

H #4  1  XZ  
                133       1.057000   3.1412414

H #4  1  YY  
                134       1.057000   3.1412414

H #4  1  YZ  
                135       1.057000   3.1412414

H #4  1  ZZ  
                136       1.057000   3.1412414

H #5  1  S   
                137      34.061341   0.2556299   0.0000000   0.0000000
                138       5.123575   0.4613600   0.0000000   0.0000000
                139       1.164663   0.6811215   0.0000000   0.0000000
                140       0.327230   0.0000000   0.3083545   0.0000000
                141       0.103072   0.0000000   0.0000000   0.1296483

H #5  1  X   
                142       1.407000   2.1842770   0.0000000
                143       0.388000   0.0000000   0.4364955

H #5  1  Y   
                144       1.407000   2.1842770   0.0000000
                145       0.388000   0.0000000   0.4364955

H #5  1  Z   
                146       1.407000   2.1842770   0.0000000
                147       0.388000   0.0000000   0.4364955

H #5  1  XX  
                148       1.057000   3.1412414

H #5  1  XY  
                149       1.057000   3.1412414

H #5  1  XZ  
                150       1.057000   3.1412414

H #5  1  YY  
                151       1.057000   3.1412414

H #5  1  YZ  
                152       1.057000   3.1412414

H #5  1  ZZ  
                153       1.057000   3.1412414

H #6  1  S   
                154      34.061341   0.2556299   0.0000000   0.0000000
                155       5.123575   0.4613600   0.0000000   0.0000000
                156       1.164663   0.6811215   0.0000000   0.0000000
                157       0.327230   0.0000000   0.3083545   0.0000000
                158       0.103072   0.0000000   0.0000000   0.1296483

H #6  1  X   
                159       1.407000   2.1842770   0.0000000
                160       0.388000   0.0000000   0.4364955

H #6  1  Y   
                161       1.407000   2.1842770   0.0000000
                162       0.388000   0.0000000   0.4364955

H #6  1  Z   
                163       1.407000   2.1842770   0.0000000
                164       0.388000   0.0000000   0.4364955

H #6  1  XX  
                165       1.057000   3.1412414

H #6  1  XY  
                166       1.057000   3.1412414

H #6  1  XZ  
                167       1.057000   3.1412414

H #6  1  YY  
                168       1.057000   3.1412414

H #6  1  YZ  
                169       1.057000   3.1412414

H #6  1  ZZ  
                170       1.057000   3.1412414

H #7  1  S   
                171      34.061341   0.2556299   0.0000000   0.0000000
                172       5.123575   0.4613600   0.0000000   0.0000000
                173       1.164663   0.6811215   0.0000000   0.0000000
                174       0.327230   0.0000000   0.3083545   0.0000000
                175       0.103072   0.0000000   0.0000000   0.1296483

H #7  1  X   
                176       1.407000   2.1842770   0.0000000
                177       0.388000   0.0000000   0.4364955

H #7  1  Y   
                178       1.407000   2.1842770   0.0000000
                179       0.388000   0.0000000   0.4364955

H #7  1  Z   
                180       1.407000   2.1842770   0.0000000
                181       0.388000   0.0000000   0.4364955

H #7  1  XX  
                182       1.057000   3.1412414

H #7  1  XY  
                183       1.057000   3.1412414

H #7  1  XZ  
                184       1.057000   3.1412414

H #7  1  YY  
                185       1.057000   3.1412414

H #7  1  YZ  
                186       1.057000   3.1412414

H #7  1  ZZ  
                187       1.057000   3.1412414

H #8  1  S   
                188      34.061341   0.2556299   0.0000000   0.0000000
                189       5.123575   0.4613600   0.0000000   0.0000000
                190       1.164663   0.6811215   0.0000000   0.0000000
                191       0.327230   0.0000000   0.3083545   0.0000000
                192       0.103072   0.0000000   0.0000000   0.1296483

H #8  1  X   
                193       1.407000   2.1842770   0.0000000
                194       0.388000   0.0000000   0.4364955

H #8  1  Y   
                195       1.407000   2.1842770   0.0000000
                196       0.388000   0.0000000   0.4364955

H #8  1  Z   
                197       1.407000   2.1842770   0.0000000
                198       0.388000   0.0000000   0.4364955

H #8  1  XX  
                199       1.057000   3.1412414

H #8  1  XY  
                200       1.057000   3.1412414

H #8  1  XZ  
                201       1.057000   3.1412414

H #8  1  YY  
                202       1.057000   3.1412414

H #8  1  YZ  
                203       1.057000   3.1412414

H #8  1  ZZ  
                204       1.057000   3.1412414

SYMMETRY TRANSFORMATION INTO 146 SYMMETRY-ADAPTED BASIS FUNCTIONS

    IRREDUCIBLE REPRESENTATION NUMBER 1

    1    1 C #1 S      1   1.0
    2    2 C #1 S      2   1.0
    3    3 C #1 S      3   1.0
    4    4 C #1 S      4   1.0
    5    5 C #1 S      5   1.0
    6    6 C #1 X      6   1.0
    7    7 C #1 X      7   1.0
    8    8 C #1 X      8   1.0
    9    9 C #1 Y      9   1.0
   10   10 C #1 Y     10   1.0
   11   11 C #1 Y     11   1.0
   12   12 C #1 Z     12   1.0
   13   13 C #1 Z     13   1.0
   14   14 C #1 Z     14   1.0
   15   15 C #1 XX    15  -1.0  21  -1.0  25   2.0
   16   16 C #1 XX    16  -1.0  22  -1.0  26   2.0
   17   17 C #1 XY    17   1.0
   18   18 C #1 XY    18   1.0
   19   19 C #1 XZ    19   1.0
   20   20 C #1 XZ    20   1.0
   21   21 C #1 YY    15   1.0  21  -1.0
   22   22 C #1 YY    16   1.0  22  -1.0
   23   23 C #1 YZ    23   1.0
   24   24 C #1 YZ    24   1.0
   25   25 C #1 ZZ    27  -1.0  30  -1.0  32   4.0
   26   26 C #1 ZZ    28  -1.0  33  -1.0  35   4.0
   27   27 C #1 F300  29  -3.0  34  -3.0  36   2.0
   28   28 C #1 F210  27   1.0  30  -3.0
   29   29 C #1 F201  31   1.0
   30   30 C #1 F120  28   3.0  33  -1.0
   31   31 C #1 F111  29   1.0  34  -1.0
   32   32 C #1 F102  37   1.0
   33   33 C #1 F030  38   1.0
   34   34 C #1 F021  39   1.0
   35   35 C #1 F012  40   1.0
   36   36 C #1 F003  41   1.0
   37   37 C #2 S     42   1.0
   38   38 C #2 S     43   1.0
   39   39 C #2 S     44   1.0
   40   40 C #2 S     45   1.0
   41   41 C #2 S     46   1.0
   42   42 C #2 X     47   1.0
   43   43 C #2 X     48   1.0
   44   44 C #2 X     49   1.0
   45   45 C #2 Y     50   1.0
   46   46 C #2 Y     51  -1.0  57  -1.0  61   2.0
   47   47 C #2 Y     52  -1.0  58  -1.0  62   2.0
   48   48 C #2 Z     53   1.0
   49   49 C #2 Z     54   1.0
   50   50 C #2 Z     55   1.0
   51   51 C #2 XX    56   1.0
   52   52 C #2 XX    51   1.0  57  -1.0
   53   53 C #2 XY    52   1.0  58  -1.0
   54   54 C #2 XY    59   1.0
   55   55 C #2 XZ    60   1.0
   56   56 C #2 XZ    63  -1.0  66  -1.0  68   4.0
   57   57 C #2 YY    64  -1.0  69  -1.0  71   4.0
   58   58 C #2 YY    65  -3.0  70  -3.0  72   2.0
   59   59 C #2 YZ    63   1.0  66  -3.0
   60   60 C #2 YZ    67   1.0
   61   61 C #2 ZZ    64   3.0  69  -1.0
   62   62 C #2 ZZ    65   1.0  70  -1.0
   63   63 C #2 F300  73   1.0
   64   64 C #2 F210  74   1.0
   65   65 C #2 F201  75   1.0
   66   66 C #2 F120  76   1.0
   67   67 C #2 F111  77   1.0
   68   68 C #2 F102  78   1.0
   69   69 C #2 F030  79   1.0
   70   70 C #2 F021  80   1.0
   71   71 C #2 F012  81   1.0
   72   72 C #2 F003  82  -1.0  85  -1.0  87   2.0
   73   73 H #3 S     83   1.0
   74   74 H #3 S     84   1.0
   75   75 H #3 S     82   1.0  85  -1.0
   76   76 H #3 X     86   1.0
   77   77 H #3 X     88   1.0
   78   78 H #3 Y     89   1.0
   79   79 H #3 Y     90   1.0
   80   80 H #3 Z     91   1.0
   81   81 H #3 Z     92   1.0
   82   82 H #3 XX    93   1.0
   83   83 H #3 XY    94   1.0
   84   84 H #3 XZ    95   1.0
   85   85 H #3 YY    96   1.0
   86   86 H #3 YZ    97  -1.0 100  -1.0 102   2.0
   87   87 H #3 ZZ    98   1.0
   88   88 H #4 S     99   1.0
   89   89 H #4 S     97   1.0 100  -1.0
   90   90 H #4 S    101   1.0
   91   91 H #4 X    103   1.0
   92   92 H #4 X    104   1.0
   93   93 H #4 Y    105   1.0
   94   94 H #4 Y    106   1.0
   95   95 H #4 Z    107   1.0
   96   96 H #4 Z    108   1.0
   97   97 H #4 XX   109   1.0
   98   98 H #4 XY   110   1.0
   99   99 H #4 XZ   111   1.0
  100  100 H #4 YY   112  -1.0 115  -1.0 117   2.0
  101  101 H #4 YZ   113   1.0
  102  102 H #4 ZZ   114   1.0
  103  103 H #5 S    112   1.0 115  -1.0
  104  104 H #5 S    116   1.0
  105  105 H #5 S    118   1.0
  106  106 H #5 X    119   1.0
  107  107 H #5 X    120   1.0
  108  108 H #5 Y    121   1.0
  109  109 H #5 Y    122   1.0
  110  110 H #5 Z    123   1.0
  111  111 H #5 Z    124   1.0
  112  112 H #5 XX   125   1.0
  113  113 H #5 XY   126   1.0
  114  114 H #5 XZ   127  -1.0 130  -1.0 132   2.0
  115  115 H #5 YY   128   1.0
  116  116 H #5 YZ   129   1.0
  117  117 H #5 ZZ   127   1.0 130  -1.0
  118  118 H #6 S    131   1.0
  119  119 H #6 S    133   1.0
  120  120 H #6 S    134   1.0
  121  121 H #6 X    135   1.0
  122  122 H #6 X    136   1.0
  123  123 H #6 Y    137   1.0
  124  124 H #6 Y    138   1.0
  125  125 H #6 Z    139   1.0
  126  126 H #6 Z    140   1.0
  127  127 H #6 XX   141   1.0
  128  128 H #6 XY   142  -1.0 145  -1.0 147   2.0
  129  129 H #6 XZ   143   1.0
  130  130 H #6 YY   144   1.0
  131  131 H #6 YZ   142   1.0 145  -1.0
  132  132 H #6 ZZ   146   1.0
  133  133 H #7 S    148   1.0
  134  134 H #7 S    149   1.0
  135  135 H #7 S    150   1.0
  136  136 H #7 X    151   1.0
  137  137 H #7 X    152   1.0
  138  138 H #7 Y    153   1.0
  139  139 H #7 Y    154   1.0
  140  140 H #7 Z    155   1.0
  141  141 H #7 Z    156   1.0
  142  142 H #7 XX   157  -1.0 160  -1.0 162   2.0
  143  143 H #7 XY   158   1.0
  144  144 H #7 XZ   159   1.0
  145  145 H #7 YY   157   1.0 160  -1.0
  146  146 H #7 YZ   161   1.0
  147  147 H #7 ZZ  
  148  148 H #8 S   
  149  149 H #8 S   
  150  150 H #8 S   
  151  151 H #8 X   
  152  152 H #8 X   
  153  153 H #8 Y   
  154  154 H #8 Y   
  155  155 H #8 Z   
  156  156 H #8 Z   
  157  157 H #8 XX  
  158  158 H #8 XY  
  159  159 H #8 XZ  
  160  160 H #8 YY  
  161  161 H #8 YZ  
  162  162 H #8 ZZ  

NUCLEAR REPULSION ENERGY:   42.1109615162 A.U.

One-electron integrals took 0.238243 seconds

  @TWOEL-I,   57167929 INTEGRALS OF SYMMETRY TYPE  I I I I
  @TWOEL-I, TOTAL NUMBER OF 2-E INTEGRALS   57167929

Two-electron integrals took 67.115474 seconds

Nuclear repulsion energy: 42.110961516218
--executable xvmol finished with status     0 in       71.88 seconds (walltime).
 --invoking executable--
/project1/nike/cfour_v2.00beta_May2019xnmol_noLABBASIS/bin/xvmol2ja
--executable xvmol2ja finished with status     0 in        0.36 seconds (walltime).
 --invoking executable--
/project1/nike/cfour_v2.00beta_May2019xnmol_noLABBASIS/bin/xvscf
  There are  146 functions in the AO basis.

  There are 1 irreducible representations.

       Irrep        # of functions
         1                146


  Parameters for SCF calculation: 
        SCF reference function: ROHF  
  Maximum number of iterations: ****
     Full symmetry point group: C1  
     Computational point group: C1  
        Initial density matrix: CORE                   
     SCF convergence tolerance: 10**(-12)
  DIIS convergence acceleration:  ON
          Latest start for DIIS:   5
                     DIIS order:   6

  Memory information:    1212569 words required.
  Fock matrices are constructed from AO integral file.
 @GETMEM-I,  Allocated       9 MB of main memory.
  Initialization and symmetry analysis required      0.002 seconds.

  @INITGES-I, Occupancies from core Hamiltonian:

          Alpha population by irrep:   9
           Beta population by irrep:   8


 total no. of electrons in initial guess :  0.000000000000000E+000
 total no. of electrons in initial guess :  0.000000000000000E+000
  --------------------------------------------------------------------
  Iteration         Total Energy            Largest Density Difference
  --------------------------------------------------------------------
       0            42.110961516217806              0.0000000000D+00
  processed               57167929  ao basis integrals from 
                 95280  buffers.
       1           -59.724442136730978              0.1960515494D+01
  processed               57167929  ao basis integrals from 
                 95280  buffers.
       2           -68.569881256615076              0.3244689360D+02
  processed               57167929  ao basis integrals from 
                 95280  buffers.
       3           -74.442470360070757              0.3267137046D+02
  processed               57167929  ao basis integrals from 
                 95280  buffers.
       4           -76.214241890894186              0.5954097734D+01
 
 sum over diagonal and offdiagdiagonal of C(T)*S*C for irrep
                     1
 -6.018963105702824E-012  4.966507935318842E-012
 reorthoganalization of MOs is carried out
 sum over diagonal and offdiagdiagonal of C(T)*S*C for irrep
                     1
  1.553202011450594E-013  2.456006958198259E-013
  processed               57167929  ao basis integrals from 
                 95280  buffers.
       5           -77.826476552280525              0.5956695521D+01
  processed               57167929  ao basis integrals from 
                 95280  buffers.
       6           -78.787057134524360              0.1334350072D+00
  processed               57167929  ao basis integrals from 
                 95280  buffers.
       7           -78.803600601077505              0.1675857100D-01
  processed               57167929  ao basis integrals from 
                 95280  buffers.
       8           -78.803716410726565              0.2150188649D-02
  processed               57167929  ao basis integrals from 
                 95280  buffers.
       9           -78.803726910306068              0.4748889653D-03
 
 sum over diagonal and offdiagdiagonal of C(T)*S*C for irrep
                     1
  2.213673688800100E-012 -9.378688361357175E-013
 reorthoganalization of MOs is carried out
 sum over diagonal and offdiagdiagonal of C(T)*S*C for irrep
                     1
  1.842970220877760E-013 -1.620748554332440E-012
  processed               57167929  ao basis integrals from 
                 95280  buffers.
      10           -78.803732022326329              0.2274061249D-03
  processed               57167929  ao basis integrals from 
                 95280  buffers.
      11           -78.803736472510423              0.1942906232D-03
  processed               57167929  ao basis integrals from 
                 95280  buffers.
      12           -78.803721906517978              0.7038345971D-03
  processed               57167929  ao basis integrals from 
                 95280  buffers.
      13           -78.803701025238553              0.2132250401D-02
  processed               57167929  ao basis integrals from 
                 95280  buffers.
      14           -78.803701019409090              0.6262753976D-04
 
 sum over diagonal and offdiagdiagonal of C(T)*S*C for irrep
                     1
  1.454503184561418E-012  2.160335903308385E-014
 reorthoganalization of MOs is carried out
 sum over diagonal and offdiagdiagonal of C(T)*S*C for irrep
                     1
 -1.514344205588714E-013 -2.260483666458258E-012
  processed               57167929  ao basis integrals from 
                 95280  buffers.
      15           -78.803701066293314              0.5943423198D-04
  processed               57167929  ao basis integrals from 
                 95280  buffers.
      16           -78.803701156246262              0.3933571578D-04
  processed               57167929  ao basis integrals from 
                 95280  buffers.
      17           -78.803701456476716              0.1151276703D-03
  processed               57167929  ao basis integrals from 
                 95280  buffers.
      18           -78.803702208468764              0.4158494423D-03
  processed               57167929  ao basis integrals from 
                 95280  buffers.
      19           -78.803702476716438              0.2989560519D-03
 
 sum over diagonal and offdiagdiagonal of C(T)*S*C for irrep
                     1
  1.885713807325828E-012 -2.572712538707667E-013
 reorthoganalization of MOs is carried out
 sum over diagonal and offdiagdiagonal of C(T)*S*C for irrep
                     1
 -1.989519660128281E-013  1.842898733664816E-013
  processed               57167929  ao basis integrals from 
                 95280  buffers.
      20           -78.803702486546200              0.2018688198D-04
  processed               57167929  ao basis integrals from 
                 95280  buffers.
      21           -78.803702516433816              0.8014223891D-04
  processed               57167929  ao basis integrals from 
                 95280  buffers.
      22           -78.803702513056578              0.7891610305D-05
  processed               57167929  ao basis integrals from 
                 95280  buffers.
      23           -78.803702510449426              0.5065456102D-04
  processed               57167929  ao basis integrals from 
                 95280  buffers.
      24           -78.803702511846268              0.3054859997D-04
 
 sum over diagonal and offdiagdiagonal of C(T)*S*C for irrep
                     1
  1.543098981926505E-012  1.652272146701472E-013
 reorthoganalization of MOs is carried out
 sum over diagonal and offdiagdiagonal of C(T)*S*C for irrep
                     1
 -2.985389713217046E-013 -3.711154114177924E-013
  processed               57167929  ao basis integrals from 
                 95280  buffers.
      25           -78.803702511324389              0.5316377704D-05
  processed               57167929  ao basis integrals from 
                 95280  buffers.
      26           -78.803702510262355              0.1717328972D-04
  processed               57167929  ao basis integrals from 
                 95280  buffers.
      27           -78.803702510261303              0.2388070512D-04
  processed               57167929  ao basis integrals from 
                 95280  buffers.
      28           -78.803702504238004              0.4578478668D-04
  processed               57167929  ao basis integrals from 
                 95280  buffers.
      29           -78.803702492847464              0.7432845548D-04
 
 sum over diagonal and offdiagdiagonal of C(T)*S*C for irrep
                     1
  1.271094340893342E-012 -5.061887465515216E-013
 reorthoganalization of MOs is carried out
 sum over diagonal and offdiagdiagonal of C(T)*S*C for irrep
                     1
 -1.852962228099386E-013 -4.270213051870185E-013
  processed               57167929  ao basis integrals from 
                 95280  buffers.
      30           -78.803702491410348              0.2651891137D-04
  processed               57167929  ao basis integrals from 
                 95280  buffers.
      31           -78.803702491151682              0.1779396086D-04
  processed               57167929  ao basis integrals from 
                 95280  buffers.
      32           -78.803702491170014              0.1783482181D-05
  processed               57167929  ao basis integrals from 
                 95280  buffers.
      33           -78.803702491178171              0.1343454496D-05
  processed               57167929  ao basis integrals from 
                 95280  buffers.
      34           -78.803702491135795              0.1975058292D-05
 
 sum over diagonal and offdiagdiagonal of C(T)*S*C for irrep
                     1
  1.106448266341431E-012 -2.540206725115832E-013
 reorthoganalization of MOs is carried out
 sum over diagonal and offdiagdiagonal of C(T)*S*C for irrep
                     1
 -5.833111771380572E-013  1.598869893742763E-012
  processed               57167929  ao basis integrals from 
                 95280  buffers.
      35           -78.803702491119736              0.2476869844D-05
  processed               57167929  ao basis integrals from 
                 95280  buffers.
      36           -78.803702491121726              0.4691182357D-06
  processed               57167929  ao basis integrals from 
                 95280  buffers.
      37           -78.803702491123943              0.1476300192D-06
  processed               57167929  ao basis integrals from 
                 95280  buffers.
      38           -78.803702491128007              0.4563202683D-06
  processed               57167929  ao basis integrals from 
                 95280  buffers.
      39           -78.803702491139035              0.1347075640D-05
 
 sum over diagonal and offdiagdiagonal of C(T)*S*C for irrep
                     1
  1.608491118076927E-012 -3.551660100285315E-013
 reorthoganalization of MOs is carried out
 sum over diagonal and offdiagdiagonal of C(T)*S*C for irrep
                     1
  4.422018307081999E-013 -2.517318133142446E-013
  processed               57167929  ao basis integrals from 
                 95280  buffers.
      40           -78.803702491145629              0.1595130531D-05
  processed               57167929  ao basis integrals from 
                 95280  buffers.
      41           -78.803702491145401              0.6355296719D-06
  processed               57167929  ao basis integrals from 
                 95280  buffers.
      42           -78.803702491145515              0.8295076792D-08
  processed               57167929  ao basis integrals from 
                 95280  buffers.
      43           -78.803702491145629              0.7101136907D-07
  processed               57167929  ao basis integrals from 
                 95280  buffers.
      44           -78.803702491145259              0.1319281684D-08
 
 sum over diagonal and offdiagdiagonal of C(T)*S*C for irrep
                     1
  1.916355962805483E-012  1.182706140582745E-012
 reorthoganalization of MOs is carried out
 sum over diagonal and offdiagdiagonal of C(T)*S*C for irrep
                     1
 -1.761923940080123E-013 -5.162230205004946E-013
  processed               57167929  ao basis integrals from 
                 95280  buffers.
      45           -78.803702491145401              0.5820002736D-08
  processed               57167929  ao basis integrals from 
                 95280  buffers.
      46           -78.803702491145458              0.4174368359D-07
  processed               57167929  ao basis integrals from 
                 95280  buffers.
      47           -78.803702491146566              0.1788861652D-06
  processed               57167929  ao basis integrals from 
                 95280  buffers.
      48           -78.803702491146197              0.1220434433D-06
  processed               57167929  ao basis integrals from 
                 95280  buffers.
      49           -78.803702491146595              0.1715493607D-07
 
 sum over diagonal and offdiagdiagonal of C(T)*S*C for irrep
                     1
  8.107958748837518E-013 -2.929166814983996E-013
 reorthoganalization of MOs is carried out
 sum over diagonal and offdiagdiagonal of C(T)*S*C for irrep
                     1
  4.655165142253281E-013  1.731994415964215E-013
  processed               57167929  ao basis integrals from 
                 95280  buffers.
      50           -78.803702491145771              0.8553769449D-07
  processed               57167929  ao basis integrals from 
                 95280  buffers.
      51           -78.803702491146282              0.2150539399D-06
  processed               57167929  ao basis integrals from 
                 95280  buffers.
      52           -78.803702491145373              0.3683998133D-07
  processed               57167929  ao basis integrals from 
                 95280  buffers.
      53           -78.803702491145742              0.9598829176D-08
  processed               57167929  ao basis integrals from 
                 95280  buffers.
      54           -78.803702491145003              0.2529592716D-08
 
 sum over diagonal and offdiagdiagonal of C(T)*S*C for irrep
                     1
  1.748046152272309E-012  7.032919735318443E-013
 reorthoganalization of MOs is carried out
 sum over diagonal and offdiagdiagonal of C(T)*S*C for irrep
                     1
 -2.984279490192421E-013 -4.074030861417959E-013
  processed               57167929  ao basis integrals from 
                 95280  buffers.
      55           -78.803702491145287              0.2098154636D-08
  processed               57167929  ao basis integrals from 
                 95280  buffers.
[...]
   i       a                 i       a                 i       a    
-----------------------------------------------------------------------------
[  5      18    ] 0.02709 [  5      23    ]-0.01929 [  3      17    ]-0.01286
[  3      24    ] 0.00999 [  6      25    ]-0.00946 [  5      10    ]-0.00873
[  2      17    ] 0.00822 [  4      29    ]-0.00759 [  6      29    ]-0.00758
[  2      30    ] 0.00702 [  5      51    ]-0.00679 [  1      25    ] 0.00652
[  4      61    ] 0.00619 [  2      24    ]-0.00606 [  5      39    ] 0.00592
-----------------------------------------------------------------------------
   Norm of T1BB vector (      828 symmetry allowed elements):  0.0525440368.
-----------------------------------------------------------------------------
   Largest T2 amplitudes for spin case BB:
   i   j   a   b             i   j   a   b             i   j   a   b
-----------------------------------------------------------------------------
[  5   4  22   7] 0.04106 [  5   4  15   7] 0.03675 [  6   5  27   7] 0.02135
[  5   2   8   7] 0.01891 [  5   3  12   7] 0.01871 [  5   3  25   7]-0.01538
[  5   4  21   7] 0.01440 [  6   5  17   7]-0.01437 [  5   4   9   7] 0.01343
[  5   2  20   7] 0.01217 [  5   1   9   7] 0.00968 [  4   2  23   7] 0.00938
[  3   2  13   7] 0.00938 [  5   4  40   7] 0.00919 [  6   4  22  17] 0.00896
-----------------------------------------------------------------------------
   Norm of T2BB vector (   141795 symmetry allowed elements):  0.1228592260.
-----------------------------------------------------------------------------
   Largest T2 amplitudes for spin case AB:
       _       _                 _       _                 _       _
   i   j   a   b             i   j   a   b             i   j   a   b
-----------------------------------------------------------------------------
[  5   5  16   7] 0.04202 [  6   5  22   7]-0.03810 [  6   5  14   7]-0.03243
[  6   5  21   7]-0.02658 [  6   4  22  22]-0.02638 [  6   4  14  22]-0.02164
[  7   5  14   7] 0.02089 [  6   4  22  15]-0.01885 [  3   5  17   7]-0.01855
[  6   4  14  15]-0.01828 [  6   2  23   7] 0.01825 [  6   2  16   7]-0.01818
[  6   5  18   7]-0.01733 [  6   5   9   7]-0.01697 [  3   2  26   7] 0.01683
-----------------------------------------------------------------------------
   Norm of T2AB vector (   794052 symmetry allowed elements):  0.3422769285.
-----------------------------------------------------------------------------
  W(mnij) AA contribution =  0.0041419150 a.u.
  W(mnij) BB contribution =  0.0055135870 a.u.
  W(mnij) AB contribution =  0.0632182677 a.u.
  W(abef) AA contribution =  0.0059240418 a.u.
  W(abef) BB contribution =  0.0076220796 a.u.
  W(abef) AB contribution =  0.0950088143 a.u.
  W(mbej) AA contribution =  -0.0102315119 a.u.
  W(mbej) BB contribution =  -0.0141441415 a.u.
  W(mbej) AB contribution = -0.2189982212 a.u.
   After  71 iterations, amplitude changes are:
    -------------------------------------------------------------------
                 Spin      RMS          Max.      Max. change for
     Amplitude   Case     Change       Change       i    j    a    b
    -------------------------------------------------------------------
        T1        AA    0.0000000000 0.0000000001    5        16
        T1        BB    0.0000000000 0.0000000010    5         7
        T2        AA    0.0000000000 0.0000000000    6    5   14   10
        T2        BB    0.0000000000 0.0000000000    4    3   22    7
        T2        AB    0.0000000000 0.0000000000    5    6    8    7
    -------------------------------------------------------------------
   The AA contribution to the correlation energy is:   -0.0374865 a.u.
   The BB contribution to the correlation energy is:   -0.0392597 a.u.
   The AB contribution to the correlation energy is:   -0.3123688 a.u.
   The total correlation energy is -0.389114978560 a.u.
   The total correlation energy is -0.389114978560 a.u.
  Current DIIS expansion coefficients : 
 [   1] 1.8867691131 [   2]-0.0229985269 [   3] 0.1939298644 [   4]-0.4307777222
 [   5]-0.6269227284
  Convergence information after    71 iterations: 
  Largest element of residual vector :  0.98849499E-09.
  Largest element of DIIS residual   :  0.50539904E-09.
  Amplitude equations converged in    71iterations.
   The AA contribution to the correlation energy is:   -0.0374865 a.u.
   The BB contribution to the correlation energy is:   -0.0392597 a.u.
   The AB contribution to the correlation energy is:   -0.3123688 a.u.
   The total correlation energy is -0.389114978559 a.u.
   The total correlation energy is -0.389114978559 a.u.
   The CC iterations have converged.

            ----------------------------------------------
                     Projected spin multiplicities: 
            ----------------------------------------------
             <0|S^2|0>                  =    0.7500000000.
             <0|S^2 (T2+T1**2) |0>      =    0.0000000000.
             <0|S^2 T1|0>               =    0.0000000000.
             Projected <0|S^2 exp(T)|0> =    0.7500000000.
             Approximate spin mult.     =    2.0000000000.
            ----------------------------------------------
   Largest T1 amplitudes for spin case AA:
   i       a                 i       a                 i       a    
-----------------------------------------------------------------------------
[  3      16    ]-0.01964 [  2      18    ]-0.01028 [  7      29    ] 0.00971
[  3      27    ]-0.00945 [  3      10    ]-0.00944 [  3      38    ]-0.00873
[  6      26    ] 0.00865 [  2      28    ]-0.00805 [  2      24    ] 0.00792
[  2      14    ] 0.00789 [  1      26    ]-0.00765 [  4      30    ] 0.00725
[  3      44    ] 0.00709 [  6      61    ] 0.00690 [  3      59    ] 0.00669
-----------------------------------------------------------------------------
   Norm of T1AA vector (      959 symmetry allowed elements):  0.0461646627.
-----------------------------------------------------------------------------
   Largest T2 amplitudes for spin case AA:
   i   j   a   b             i   j   a   b             i   j   a   b
-----------------------------------------------------------------------------
[  7   5  27  18]-0.00906 [  6   3  15  10] 0.00893 [  7   6  18  14]-0.00845
[  6   3  23  15]-0.00843 [  7   6  28  14] 0.00814 [  6   4  15  13]-0.00792
[  6   4  34  24] 0.00786 [  6   4  24  15] 0.00779 [  6   3  34  23]-0.00756
[  6   5  16  14]-0.00753 [  6   5  27  14]-0.00749 [  7   6  22  18] 0.00734
[  7   6  28  22] 0.00705 [  7   3  19  10] 0.00678 [  5   4  17  13]-0.00677
-----------------------------------------------------------------------------
   Norm of T2AA vector (   195636 symmetry allowed elements):  0.1032272427.
-----------------------------------------------------------------------------
   Largest T1 amplitudes for spin case BB:
   i       a                 i       a                 i       a    
-----------------------------------------------------------------------------
[  5      18    ] 0.02709 [  5      23    ]-0.01929 [  3      17    ]-0.01286
[  3      24    ] 0.00999 [  6      25    ]-0.00946 [  5      10    ]-0.00873
[  2      17    ] 0.00822 [  4      29    ]-0.00759 [  6      29    ]-0.00758
[  2      30    ] 0.00702 [  5      51    ]-0.00679 [  1      25    ] 0.00652
[  4      61    ] 0.00619 [  2      24    ]-0.00606 [  5      39    ] 0.00592
-----------------------------------------------------------------------------
   Norm of T1BB vector (      828 symmetry allowed elements):  0.0525440385.
-----------------------------------------------------------------------------
   Largest T2 amplitudes for spin case BB:
   i   j   a   b             i   j   a   b             i   j   a   b
-----------------------------------------------------------------------------
[  5   4  22   7] 0.04106 [  5   4  15   7] 0.03675 [  6   5  27   7] 0.02135
[  5   2   8   7] 0.01891 [  5   3  12   7] 0.01871 [  5   3  25   7]-0.01538
[  5   4  21   7] 0.01440 [  6   5  17   7]-0.01437 [  5   4   9   7] 0.01343
[  5   2  20   7] 0.01217 [  5   1   9   7] 0.00968 [  4   2  23   7] 0.00938
[  3   2  13   7] 0.00938 [  5   4  40   7] 0.00919 [  6   4  22  17] 0.00896
-----------------------------------------------------------------------------
   Norm of T2BB vector (   141795 symmetry allowed elements):  0.1228592260.
-----------------------------------------------------------------------------
   Largest T2 amplitudes for spin case AB:
       _       _                 _       _                 _       _
   i   j   a   b             i   j   a   b             i   j   a   b
-----------------------------------------------------------------------------
[  5   5  16   7] 0.04202 [  6   5  22   7]-0.03810 [  6   5  14   7]-0.03243
[  6   5  21   7]-0.02658 [  6   4  22  22]-0.02638 [  6   4  14  22]-0.02164
[  7   5  14   7] 0.02089 [  6   4  22  15]-0.01885 [  3   5  17   7]-0.01855
[  6   4  14  15]-0.01828 [  6   2  23   7] 0.01825 [  6   2  16   7]-0.01818
[  6   5  18   7]-0.01733 [  6   5   9   7]-0.01697 [  3   2  26   7] 0.01683
-----------------------------------------------------------------------------
   Norm of T2AB vector (   794052 symmetry allowed elements):  0.3422769285.
-----------------------------------------------------------------------------
       Summary of iterative solution of CC equations 
      -----------------------------------------------------------
                       Correlation           Total
       Iteration         Energy              Energy
      -----------------------------------------------------------
            0        -0.363808387593     -79.167510878739  DIIS 
            1        -0.378849017246     -79.182551508392  DIIS 
            2        -0.386968131711     -79.190670622856  DIIS 
            3        -0.388328834259     -79.192031325404  DIIS 
            4        -0.389074421379     -79.192776912524  DIIS 
            5        -0.389114192306     -79.192816683452  DIIS 
            6        -0.389115003808     -79.192817494953  DIIS 
            7        -0.389114977433     -79.192817468579  DIIS 
            8        -0.389114626470     -79.192817117615  DIIS 
            9        -0.389114902048     -79.192817393193  DIIS 
           10        -0.389114934410     -79.192817425556  DIIS 
           11        -0.389114973421     -79.192817464566  DIIS 
           12        -0.389114982355     -79.192817473500  DIIS 
           13        -0.389114992048     -79.192817483193  DIIS 
           14        -0.389114980213     -79.192817471359  DIIS 
           15        -0.389114966560     -79.192817457705  DIIS 
           16        -0.389114970697     -79.192817461842  DIIS 
           17        -0.389114970514     -79.192817461660  DIIS 
           18        -0.389114975998     -79.192817467144  DIIS 
           19        -0.389114976674     -79.192817467819  DIIS 
           20        -0.389114977573     -79.192817468718  DIIS 
           21        -0.389114978276     -79.192817469421  DIIS 
           22        -0.389114975411     -79.192817466556  DIIS 
           23        -0.389114976788     -79.192817467934  DIIS 
           24        -0.389114975236     -79.192817466382  DIIS 
           25        -0.389114978447     -79.192817469592  DIIS 
           26        -0.389114978408     -79.192817469553  DIIS 
           27        -0.389114978392     -79.192817469537  DIIS 
           28        -0.389114978211     -79.192817469356  DIIS 
           29        -0.389114977565     -79.192817468711  DIIS 
           30        -0.389114977616     -79.192817468762  DIIS 
           31        -0.389114977737     -79.192817468882  DIIS 
           32        -0.389114978270     -79.192817469415  DIIS 
           33        -0.389114978321     -79.192817469467  DIIS 
           34        -0.389114978343     -79.192817469488  DIIS 
           35        -0.389114978297     -79.192817469442  DIIS 
           36        -0.389114978270     -79.192817469416  DIIS 
           37        -0.389114978270     -79.192817469416  DIIS 
           38        -0.389114978273     -79.192817469418  DIIS 
           39        -0.389114978334     -79.192817469479  DIIS 
           40        -0.389114978344     -79.192817469490  DIIS 
           41        -0.389114978368     -79.192817469513  DIIS 
           42        -0.389114978322     -79.192817469468  DIIS 
           43        -0.389114978302     -79.192817469447  DIIS 
           44        -0.389114978333     -79.192817469478  DIIS 
           45        -0.389114978323     -79.192817469469  DIIS 
           46        -0.389114978473     -79.192817469618  DIIS 
           47        -0.389114978446     -79.192817469591  DIIS 
           48        -0.389114978514     -79.192817469659  DIIS 
           49        -0.389114978493     -79.192817469638  DIIS 
           50        -0.389114978486     -79.192817469631  DIIS 
           51        -0.389114978529     -79.192817469675  DIIS 
           52        -0.389114978522     -79.192817469668  DIIS 
           53        -0.389114978544     -79.192817469689  DIIS 
           54        -0.389114978538     -79.192817469683  DIIS 
           55        -0.389114978542     -79.192817469687  DIIS 
           56        -0.389114978538     -79.192817469684  DIIS 
           57        -0.389114978523     -79.192817469668  DIIS 
           58        -0.389114978535     -79.192817469681  DIIS 
           59        -0.389114978532     -79.192817469677  DIIS 
           60        -0.389114978539     -79.192817469684  DIIS 
           61        -0.389114978538     -79.192817469683  DIIS 
           62        -0.389114978538     -79.192817469683  DIIS 
           63        -0.389114978540     -79.192817469686  DIIS 
           64        -0.389114978535     -79.192817469680  DIIS 
           65        -0.389114978544     -79.192817469690  DIIS 
           66        -0.389114978543     -79.192817469688  DIIS 
           67        -0.389114978556     -79.192817469702  DIIS 
           68        -0.389114978561     -79.192817469706  DIIS 
           69        -0.389114978558     -79.192817469703  DIIS 
           70        -0.389114978563     -79.192817469708  DIIS 
           71        -0.389114978559     -79.192817469705  DIIS 
      -----------------------------------------------------------
      A miracle has come to pass. The CC iterations have converged.
 @DIMT3-I, Dimensions of T3 amplitudes : 
               # abc          # ijk       Symmetry    Spin 
                   419220             35     1          1
                  1285608            126     1          2
                  1295061            105     1          3
                   428536             20     1          4
 @DIMT3-I, Dimensions of T3 amplitudes : 
               # abc          # ijk       Symmetry    Spin 
                   419220             35     1          1
                  1285608            126     1          2
                  1295061            105     1          3
                   428536             20     1          4
 @TRPS-I, Welcome to TRPS. Watch your RUs ! 
 @TRPS-I, Method is CCSD(T) 
 @TRPS-I, Calculation type is energy 
 @TRPS-I, Reference function information : 
          Reference function is general non-HF 
 @TRPS-I, Reference function is ROHF 
 @TRPS-I, INT1 is true 
 @TRPS-I, INT2 is false 
 @TRPS-I, Lengths of ijka integrals. #1      20139
                                     #2      12420
                                     #3      34524
                                     #4      40572
                                    Max      40572
 @INITRP-I, Initializing W intermediate lists. 
 @TSPABCI-I, AbIc/AbcI record transposition. 
 @TSPABCI-I, (O,v) ---> (v,O) transposition. 
 @TSPABCI-I, In-core algorithm is being used. 
 @TRPS-I, Available memory in integer words    499959040
          Number of pre-allocated words for TRPS14       121945
          Number of free words for TRPS14    499837095
 @TRPS14-I, Spin case AAA 
 @TRPS14-I, Number of free integer words  499837095
            Number of free double words   499837095
            Ratio                                 1
 @TRPS14-I, E4TAAA      -0.000283233443
 @TRPS14-I, E5ST A    0.000002702432018
 @TRPS14-I, E4ST A   -0.000001495944027
 @TRPS-I, Available memory in integer words    499959040
          Number of pre-allocated words for TRPS14       121939
          Number of free words for TRPS14    499837101
 @TRPS14-I, Spin case BBB 
 @TRPS14-I, Number of free integer words  499837101
            Number of free double words   499837101
            Ratio                                 1
 @TRPS14-I, E4TBBB      -0.000454547310
 @TRPS14-I, E5ST B    0.000011334487302
 @TRPS14-I, E4ST B    0.000001137815691
 @SETOOOV-I, Some OOOV lists are being transposed. 
 @TRPS-I, Available memory in integer words    499959040
          Number of pre-allocated words for TRPS2       591762
          Number of free words for TRPS2    499367278
 @TRPS2-I, Spin case AAB 
 @TRPS2-I, Number of free integer words  499367278
           Number of free double  words  499367278
           Ratio                                 1
 @TRPS2-I, E4TBAA      -0.007402674780
 @TRPS2-I, E5ST A    0.000018259341047
 @TRPS2-I, E5ST B    0.000070140199852
 @TRPS2-I, E4ST A   -0.000022322048539
 @TRPS2-I, E4ST B    0.000002167268411
 @SETOOOV-I, Some OOOV lists are being transposed. 
 @TSPABCI2-I, (Alpha,Beta) ---> (Beta,Alpha). 
 @TSPABCI2-I, In-core algorithm is being used. 
 @TSPABCI2-I, In-core algorithm is being used. 
 @AT2IAB-I, Some AbIj lists are being altered. 
 @TRPS-I, Available memory in integer words    499959040
          Number of pre-allocated words for TRPS3      1080540
          Number of free words for TRPS3    498878500
 @TRPS3-I, Spin case BBA 
 @TRPS3-I, Number of free integer words  498878500
           Number of free double  words  498878500
           Ratio                                 1
 @TRPS3-I, E4TBBA      -0.007616710902
 @TRPS3-I, E5ST A    0.000037468261005
 @TRPS3-I, E5ST B    0.000181324181112
 @TRPS3-I, E4ST A   -0.000035700062041
 @TRPS3-I, E4ST B    0.000005869462357
 @TSPABCI2-I, (Beta,Alpha) ---> (Alpha,Beta). 
 @TSPABCI2-I, In-core algorithm is being used. 
 @TSPABCI2-I, In-core algorithm is being used. 
 @AT2IAB-I, Some AbIj lists are being altered. 
 @TSPABCI-I, AbIc/AbcI record transposition. 
 @TSPABCI-I, (v,O) ---> (O,v) transposition. 
 @TSPABCI-I, In-core algorithm is being used. 
 @CCENRG-I, CCSD/QCISD energy will now be evaluated. 
 @CCENRG-I, Correlation energies. ECCAA       -0.037486467173
                                  ECCBB       -0.039259664487
                                  ECCAB       -0.312368846899
                                  Total       -0.389114978559
 @CCENRG-I, Reference   energy     -78.803702491145
            CCSD/QCISD energy      -79.192817469705
          E4T (T(CCSD)) = -0.015757166436
          E5ST          =  0.000218792442
          E4ST          = -0.000029830600
          In other words  
          <T3[2](Dagger) D3  T3[2]> = -0.015757166436
          <T1   (Dagger) Q1 WT3[2]> =  0.000218792442
          <T2   (Dagger) Q2 FT3[2]> = -0.000029830600
        E(CCSD)           =     -79.192817469705
        E(CCSD(T))        =     -79.208385674298
  @CHECKOUT-I, Total execution time (CPU/WALL):    14983.44/   18694.55 seconds.
--executable xvcc finished with status     0 in    18697.12 seconds (walltime).
  The final electronic energy is       -79.208385674298057 a.u. 
  This computation required                        21638.99 seconds (walltime).
--- SharcNET Job Epilogue ---
Job completed successfully.
               jobid: 1963896
               resid: 3433368
         exit status: 0
      allocated time: 21640.1
           user time: 16057.3
         system time: 1261.6
peak rss=4294967296; peak vsz=4294967296 (bytes)
atime=21640.1; utime=16057.3; stime=1261.6; exit=0
