 **********************************************************************
                          MRCC program system
 **********************************************************************
 
                              Written by
 Mihaly Kallay, Peter R. Nagy, David Mester, Zoltan Rolik, Gyula Samu,
   Jozsef Csontos, Jozsef Csoka, P. Bernat Szabo, Laszlo Gyevi-Nagy,
    Bence Hegely, Istvan Ladjanszki, Lorant Szegedy, Bence Ladoczki,
       Klara Petrov, Mate Farkas, Pal D. Mezei, and Adam Ganyecz
 
        Department of Physical Chemistry and Materials Science
            Budapest University of Technology and Economics
                  Budapest P.O.Box 91, H-1521 Hungary
 
                              www.mrcc.hu
 
                    Release date: February 22, 2020

 ************************ 2021-07-31 17:35:51 *************************
 Executing minp...

 Reading input from MINP...
 
 Input file:
 
#
#TITLE
basis=def2-TZVPP
uncontract=off
#iface=cfour
calc=CC(4)(5)
mem=56GB
#core=1
core=frozen
itol=18
scftol=13
cctol=5
ccmaxit=999
scfmaxit=9999
scftype=RHF
rohftype=semicanonical
scfiguess=ao
rest=2
charge=+0
mult=1
#symm=1
#occ=3,0,0,0,0,1,2,2/3,0,0,0,0,1,1,1

#refdet=serialno
#1
#2,3

unit=angs
geom=xyz
2

B 0.0000 0.0000 0.0000
N 0.0000 0.0000 1.329

#Li 1 R

#R=3.065


tprint=0.01
verbosity=3
#nstate=4


 
 
 Checking keyword combinations...
 
 Keywords:
 
 active=none
 agrid=ld0006-ld0590
 basis=def2-tzvpp
 basis_sm=none
 basopt=off
 bfbasis=none
 bfgsmem=10
 bfgstol=1.0d-3
 bpcompo=0.985
 bpcompv=0.98
 bpdfo=0.985
 bpocc=0.985
 bppdo=0.985
 bppdv=0.98
 bpedo=0.985
 bpedv=0.98
 calc=cc(4)(5)
 ccmaxit=999
 ccprog=mrcc
 ccsdalg=disk
 ccsdmkl=seq
 ccsdrest=off
 ccsdthreads=2
 cctol=5
 charge=+0
 cialg=disk
 ciguess=off
 cmpgrp=auto
 core=frozen
 corembed=off
 csapprox=off
 dboc=off
 dendec=cholesky
 dens=0
 dfalg=lineq
 dfbasis_cor=none
 dfbasis_scf=none
 dfintran=ovirt
 dft=off
 dhexc=adc(2)
 diag=david
 docc=
 domrad=10.d0
 drpaalg=fit
 dual=off
 ecp=auto
 edisp=off
 edisp_embed=off
 embed=off
 epert=none
 eps=0.975
 excrad=0.d0
 excrad_fin=0.000000000D+00
 fmm=off
 fmmord=8
 freq=off
 gauss=spher
 geom=xyz
 gopt=off
 ghost=none
 gtol=7
 grdens=off
 grtol=10
 hamilton=dc
 iface=none
 intalg=auto
 itol=18
 laptol=1.d-2
 lccoporder=trffirst
 lcorthr=normal
 lccrest=off
 lmp2dens=on
 lnoepso=0.d0
 lnoepsv=1e-6
 localcc=off
 localcorrsymm=off
 locintrf=disk
 mact=
 maxact=off
 maxdim=100
 maxex=0
 maxmicroit=100
 mcscfiguess=hf
 mem=56gb
 molden=on
 mpitasks=1
 mulmet=0
 mult=1
 nacto=0
 nactv=0
 naf_cor=off
 naf_scf=off
 nafalg=albe
 naftyp=
 nchol=auto
 ndeps=1e-3
 nstate=1
 nsing=0
 ntrip=0
 occ=
 oniom=off
 oniom_eechg=off
 oniom_pcm=off
 optalg=
 optmaxit=50
 optetol=1e-6
 optex=   0
 optgtol=1e-4
 optstol=1e-3
 orblocc=off
 orbloce=off
 orbloco=off
 orblocv=off
 orblocguess=cholesky
 osveps=1e-3
 ovirt=off
 ovltol=1e-7
 ovosnorb=80.0
 pcm=off
 popul=off
 pressure=100000
 pssp=off
 ptfreq=0.0
 ptthreads=2
 qscf=off
 qmmm=off
 redcost_exc=off
 redcost_tddft=off
 refdet=none
 rest=2
 rgrid=log3
 rohfcore=semicanonical
 rohftype=semicanonical
 scfalg=auto
 scfdamp=off
 scfdiis=on
 scfdiis_end=9999
 scfdiis_start=1
 scfdiis_step=1
 scfdtol=14
 scfext=10
 scfguessdens=
 scfiguess=ao
 scflshift=off
 scfmaxit=9999
 scftype=rhf
 scftol=13
 scspe=1.d0
 scsph=1.d0
 scsps=1.2d0
 scspt=0.33333333333333
 scspv=1.d0
 spairtol=1e-4
 subminp=top
 symm=
 talg=occ
 temp=298.15
 test=off
 theodore=off
 tlmo=0.999
 tpao=0.94
 tprint=0.01
 uncontract=off
 unit=angs
 usedisk=2
 verbosity=3
 wpairtol=0.100000000E-05

 ************************ 2021-07-31 17:35:52 *************************
 Executing integ...

 Allocation of 56.0 Gbytes of memory...
 
 
 Number of atoms:                  2
 Charge:                           0
 Number of electrons:             12
 Number of core electrons:         4
 Spin multiplicity:                1
 
                 Cartesian coordinates [bohr]      Atomic mass [AMU]  Z
   1  B     0.00000000    0.00000000    0.00000000    11.009305       5
   2  N     0.00000000    0.00000000    2.51144602    14.003074       7
 
 This molecule is linear.
 
 Rotational constants [cm-1]: 
      1.548525067173
 
 Point group: Cxv 
 Computational point group: C2v 
 
 Cartesian coordinates in standard orientation [bohr]
   1  B     0.00000000    0.00000000   -1.40602235
   2  N     0.00000000    0.00000000    1.10542367
 
 Nuclear repulsion energy [au]:         13.936194411926
 
 
 Basis set information:
 
 Maximum angular momentum: f
 Maximum number of contracted Gaussians:    5
 Maximum number of primitive Gaussians:    11
 Spherical harmonic GTOs are used.
 
    1  B  def2-tzvpp [ 11s 6p 2d 1f | 5s 3p 2d 1f ]
    2  N  def2-tzvpp [ 11s 6p 2d 1f | 5s 3p 2d 1f ]
 
 Basis functions:
            1             2             3             4             5             6             7             8             9            10
    0    1B1s          1B2s          1B3s          1B4s          1B5s          1B1pz         1B1py         1B1px         1B2pz         1B2py     
    1    1B2px         1B3pz         1B3py         1B3px         1B1d-2        1B1d-1        1B1d0         1B1d+1        1B1d+2        1B2d-2    
    2    1B2d-1        1B2d0         1B2d+1        1B2d+2        1B1f-3        1B1f-2        1B1f-1        1B1f0         1B1f+1        1B1f+2    
    3    1B1f+3        2N1s          2N2s          2N3s          2N4s          2N5s          2N1pz         2N1py         2N1px         2N2pz     
    4    2N2py         2N2px         2N3pz         2N3py         2N3px         2N1d-2        2N1d-1        2N1d0         2N1d+1        2N1d+2    
    5    2N2d-2        2N2d-1        2N2d0         2N2d+1        2N2d+2        2N1f-3        2N1f-2        2N1f-1        2N1f0         2N1f+1    
    6    2N1f+2        2N1f+3    
 
 Maximum number of basis functions per shell:   10
 Total number of basis functions:     62
 
 
 Character table for point group C2v:
 
          E  C2  Qh  Qv  
    A1    1   1   1   1
    B1    1  -1   1  -1
    B2    1  -1  -1   1
    A2    1   1  -1  -1
 
 Number of basis functions per irrep:
    A1     28
    B1     14
    B2     14
    A2      6
 
 
 Calculation of overlap integrals...
 CPU time [min]:     0.006                   Wall time [min]:     0.009
 
 Calculation of the square root of the overlap matrix...
 Minimum eigenvalue of the overlap matrix: 0.791733E-03
 CPU time [min]:     0.006                   Wall time [min]:     0.010
 
 Calculation of kinetic energy integrals...
 CPU time [min]:     0.006                   Wall time [min]:     0.012
 Calculation of nuclear attraction integrals...
 CPU time [min]:     0.006                   Wall time [min]:     0.012
 
 Calculation of prescreening integrals...
 CPU time [min]:     0.007                   Wall time [min]:     0.013
 
 Calculation of two-electron integrals...
   2% done.
  28% done.
  62% done.
 100% done.
 CPU time [min]:     0.015                   Wall time [min]:     0.020

 ************************ 2021-07-31 17:35:53 *************************
 Executing scf...

 @scfsetup: integrals taken from disk
            mrcc/integ binary format
 @scfsetup: calc on blockdiagonal matrices
            using symmetry adapted basis
 @scfsetup: diis switched on
 @scfsetup: number of steps to extrapolate from  10
 @scfsetup: tolerance in energy deviation    0.100000E-12
            tolerance in density deviation    0.100000E-13
 @scfsetup: maximum number of iterations:9999
 @scfsetup: restricted closed shell hf calc
 @scfsetup: starting scf from diagonal ao guess
 @scfsetup: occupation set:
            from initial orbitals
 @scfsetup: diis runs from iteration:   1
 @scfsetup: diis runs to iteration:9999
 @scfsetup: diis runs in every iteration
 Allocation of 56.0 Gbytes of memory...
 ======================================================================
 ITERATION STEP   1
 CPU time [min]:     0.003                   Wall time [min]:     0.007
 
 Gradient norm:      0.0000E+00
 RMS of difference density:                            0.65243524394708
 Gap [au]:  0.16615049
 ALPHA OCC:   4   1   1   0
 BETA  OCC:   4   1   1   0
 
 ***HARTREE-FOCK ENERGY IN STEP   1 IS     -68.3863373575680384 [AU]
 ======================================================================
 ITERATION STEP   2
 CPU time [min]:     0.004                   Wall time [min]:     0.008
 
 Gradient norm:      0.0000E+00
 DIIS is running in this iteration step.
 RMS of [F,P]:                                         0.15716909656355
 RMS of difference density:                            0.64971110607007
 Gap [au]:  1.12471907
 ALPHA OCC:   4   1   1   0
 BETA  OCC:   4   1   1   0
 
 ***HARTREE-FOCK ENERGY IN STEP   2 IS     -70.1310448581320998 [AU]
 ======================================================================
 ITERATION STEP   3
 CPU time [min]:     0.005                   Wall time [min]:     0.010
 
 Gradient norm:      0.0000E+00
 DIIS is running in this iteration step.
 RMS of [F,P]:                                         0.19976054668532
 RMS of difference density:                            0.05561680476178
 Gap [au]:  0.35009537
 ALPHA OCC:   4   1   1   0
 BETA  OCC:   4   1   1   0
 
 ***HARTREE-FOCK ENERGY IN STEP   3 IS     -73.5901574391617714 [AU]
 ======================================================================
 ITERATION STEP   4
 CPU time [min]:     0.005                   Wall time [min]:     0.010
 
 Gradient norm:      0.0000E+00
 DIIS is running in this iteration step.
 RMS of [F,P]:                                         0.07608739463865
 RMS of difference density:                            0.03360499349858
 Gap [au]:  0.16433436
 ALPHA OCC:   4   1   1   0
 BETA  OCC:   4   1   1   0
 
 ***HARTREE-FOCK ENERGY IN STEP   4 IS     -77.9379555914958786 [AU]
 ======================================================================
 ITERATION STEP   5
 CPU time [min]:     0.006                   Wall time [min]:     0.011
 
 Gradient norm:      0.0000E+00
 DIIS is running in this iteration step.
 RMS of [F,P]:                                         0.00923425273588
 RMS of difference density:                            0.00806519191036
 Gap [au]:  0.27650727
 ALPHA OCC:   4   1   1   0
 BETA  OCC:   4   1   1   0
 
 ***HARTREE-FOCK ENERGY IN STEP   5 IS     -78.8744181873091463 [AU]
 ======================================================================
 ITERATION STEP   6
 CPU time [min]:     0.007                   Wall time [min]:     0.012
 
 Gradient norm:      0.0000E+00
 DIIS is running in this iteration step.
 RMS of [F,P]:                                         0.00259735472559
 RMS of difference density:                            0.00258522783795
 Gap [au]:  0.28312932
 ALPHA OCC:   4   1   1   0
 BETA  OCC:   4   1   1   0
 
 ***HARTREE-FOCK ENERGY IN STEP   6 IS     -78.8950637582217098 [AU]
 ======================================================================
 ITERATION STEP   7
 CPU time [min]:     0.007                   Wall time [min]:     0.013
 
 Gradient norm:      0.0000E+00
 DIIS is running in this iteration step.
 RMS of [F,P]:                                         0.00308866280243
 RMS of difference density:                            0.00118141920180
 Gap [au]:  0.29233453
 ALPHA OCC:   4   1   1   0
 BETA  OCC:   4   1   1   0
 
 ***HARTREE-FOCK ENERGY IN STEP   7 IS     -78.8966114494641602 [AU]
 ======================================================================
 ITERATION STEP   8
 CPU time [min]:     0.008                   Wall time [min]:     0.013
 
 Gradient norm:      0.0000E+00
 DIIS is running in this iteration step.
 RMS of [F,P]:                                         0.00114865082950
 RMS of difference density:                            0.00134801197262
 Gap [au]:  0.29996096
 ALPHA OCC:   4   1   1   0
 BETA  OCC:   4   1   1   0
 
 ***HARTREE-FOCK ENERGY IN STEP   8 IS     -78.8984819428486333 [AU]
 ======================================================================
 ITERATION STEP   9
 CPU time [min]:     0.009                   Wall time [min]:     0.014
 
 Gradient norm:      0.0000E+00
 DIIS is running in this iteration step.
 RMS of [F,P]:                                         0.00059318646316
 RMS of difference density:                            0.00233110174032
 Gap [au]:  0.30781377
 ALPHA OCC:   4   1   1   0
 BETA  OCC:   4   1   1   0
 
 ***HARTREE-FOCK ENERGY IN STEP   9 IS     -78.8994816434729103 [AU]
 ======================================================================
 ITERATION STEP  10
 CPU time [min]:     0.009                   Wall time [min]:     0.015
 
 Gradient norm:      0.0000E+00
 DIIS is running in this iteration step.
 RMS of [F,P]:                                         0.00032146831445
 RMS of difference density:                            0.00152131872323
 Gap [au]:  0.31307615
 ALPHA OCC:   4   1   1   0
 BETA  OCC:   4   1   1   0
 
 ***HARTREE-FOCK ENERGY IN STEP  10 IS     -78.9004469643173252 [AU]
 ======================================================================
 ITERATION STEP  11
 CPU time [min]:     0.010                   Wall time [min]:     0.015
 
 Gradient norm:      0.0000E+00
 DIIS is running in this iteration step.
 RMS of [F,P]:                                         0.00007660298127
 RMS of difference density:                            0.00021990545581
 Gap [au]:  0.31364245
 ALPHA OCC:   4   1   1   0
 BETA  OCC:   4   1   1   0
 
 ***HARTREE-FOCK ENERGY IN STEP  11 IS     -78.9006639397828167 [AU]
 ======================================================================
 ITERATION STEP  12
 CPU time [min]:     0.010                   Wall time [min]:     0.016
 
 Gradient norm:      0.0000E+00
 DIIS is running in this iteration step.
 RMS of [F,P]:                                         0.00001437741028
 RMS of difference density:                            0.00001674930256
 Gap [au]:  0.31353170
 ALPHA OCC:   4   1   1   0
 BETA  OCC:   4   1   1   0
 
 ***HARTREE-FOCK ENERGY IN STEP  12 IS     -78.9006680724428406 [AU]
 ======================================================================
 ITERATION STEP  13
 CPU time [min]:     0.011                   Wall time [min]:     0.017
 
 Gradient norm:      0.0000E+00
 DIIS is running in this iteration step.
 RMS of [F,P]:                                         0.00000798376566
 RMS of difference density:                            0.00000776952791
 Gap [au]:  0.31356525
 ALPHA OCC:   4   1   1   0
 BETA  OCC:   4   1   1   0
 
 ***HARTREE-FOCK ENERGY IN STEP  13 IS     -78.9006681099759106 [AU]
 ======================================================================
 ITERATION STEP  14
 CPU time [min]:     0.012                   Wall time [min]:     0.017
 
 Gradient norm:      0.0000E+00
 DIIS is running in this iteration step.
 RMS of [F,P]:                                         0.00000038367937
 RMS of difference density:                            0.00000140184626
 Gap [au]:  0.31357187
 ALPHA OCC:   4   1   1   0
 BETA  OCC:   4   1   1   0
 
 ***HARTREE-FOCK ENERGY IN STEP  14 IS     -78.9006681249594237 [AU]
 ======================================================================
 ITERATION STEP  15
 CPU time [min]:     0.012                   Wall time [min]:     0.018
 
 Gradient norm:      0.0000E+00
 DIIS is running in this iteration step.
 RMS of [F,P]:                                         0.00000006610541
 RMS of difference density:                            0.00000007094108
 Gap [au]:  0.31357097
 ALPHA OCC:   4   1   1   0
 BETA  OCC:   4   1   1   0
 
 ***HARTREE-FOCK ENERGY IN STEP  15 IS     -78.9006681251141231 [AU]
 ======================================================================
 ITERATION STEP  16
 CPU time [min]:     0.013                   Wall time [min]:     0.019
 
 Gradient norm:      0.0000E+00
 DIIS is running in this iteration step.
 RMS of [F,P]:                                         0.00000002643102
 RMS of difference density:                            0.00000001529514
 Gap [au]:  0.31357118
 ALPHA OCC:   4   1   1   0
 BETA  OCC:   4   1   1   0
 
 ***HARTREE-FOCK ENERGY IN STEP  16 IS     -78.9006681251149047 [AU]
 ======================================================================
 ITERATION STEP  17
 CPU time [min]:     0.013                   Wall time [min]:     0.019
 
 Gradient norm:      0.0000E+00
 DIIS is running in this iteration step.
 RMS of [F,P]:                                         0.00000000439181
 RMS of difference density:                            0.00000000411196
 Gap [au]:  0.31357117
 ALPHA OCC:   4   1   1   0
 BETA  OCC:   4   1   1   0
 
 ***HARTREE-FOCK ENERGY IN STEP  17 IS     -78.9006681251150894 [AU]
 ======================================================================
 ITERATION STEP  18
 CPU time [min]:     0.014                   Wall time [min]:     0.020
 
 Gradient norm:      0.0000E+00
 DIIS is running in this iteration step.
 RMS of [F,P]:                                         0.00000000025549
 RMS of difference density:                            0.00000000052686
 Gap [au]:  0.31357117
 ALPHA OCC:   4   1   1   0
 BETA  OCC:   4   1   1   0
 
 ***HARTREE-FOCK ENERGY IN STEP  18 IS     -78.9006681251150894 [AU]
 ======================================================================
 ITERATION STEP  19
 CPU time [min]:     0.015                   Wall time [min]:     0.021
 
 Gradient norm:      0.0000E+00
 DIIS is running in this iteration step.
 RMS of [F,P]:                                         0.00000000004167
 RMS of difference density:                            0.00000000008201
 Gap [au]:  0.31357117
 ALPHA OCC:   4   1   1   0
 BETA  OCC:   4   1   1   0
 
 ***HARTREE-FOCK ENERGY IN STEP  19 IS     -78.9006681251150610 [AU]
 ======================================================================
 ITERATION STEP  20
 CPU time [min]:     0.015                   Wall time [min]:     0.021
 
 Gradient norm:      0.0000E+00
 DIIS is running in this iteration step.
 RMS of [F,P]:                                         0.00000000000352
 RMS of difference density:                            0.00000000001992
 Gap [au]:  0.31357117
 ALPHA OCC:   4   1   1   0
 BETA  OCC:   4   1   1   0
 
 ***HARTREE-FOCK ENERGY IN STEP  20 IS     -78.9006681251150610 [AU]
 ======================================================================
 ITERATION STEP  21
 CPU time [min]:     0.016                   Wall time [min]:     0.022
 
 Gradient norm:      0.0000E+00
 DIIS is running in this iteration step.
 RMS of [F,P]:                                         0.00000000000049
 RMS of difference density:                            0.00000000000068
 Gap [au]:  0.31357117
 ALPHA OCC:   4   1   1   0
 BETA  OCC:   4   1   1   0
 
 ***HARTREE-FOCK ENERGY IN STEP  21 IS     -78.9006681251151178 [AU]
 ======================================================================
 ITERATION STEP  22
 CPU time [min]:     0.016                   Wall time [min]:     0.023
 
 Gradient norm:      0.0000E+00
 DIIS is running in this iteration step.
 RMS of [F,P]:                                         0.00000000000006
 RMS of difference density:                            0.00000000000028
 Gap [au]:  0.31357117
 ALPHA OCC:   4   1   1   0
 BETA  OCC:   4   1   1   0
 
 ***HARTREE-FOCK ENERGY IN STEP  22 IS     -78.9006681251150894 [AU]
 ======================================================================
 ITERATION STEP  23
 CPU time [min]:     0.017                   Wall time [min]:     0.023
 
 Gradient norm:      0.0000E+00
 DIIS is running in this iteration step.
 RMS of [F,P]:                                         0.00000000000001
 RMS of difference density:                            0.00000000000003
 Gap [au]:  0.31357117
 ALPHA OCC:   4   1   1   0
 BETA  OCC:   4   1   1   0
 
 ***HARTREE-FOCK ENERGY IN STEP  23 IS     -78.9006681251150610 [AU]
 ======================================================================
 ITERATION STEP  24
 CPU time [min]:     0.017                   Wall time [min]:     0.024
 
 Gradient norm:      0.0000E+00
 DIIS is running in this iteration step.
 RMS of [F,P]:                                         0.00000000000000
 RMS of difference density:                            0.00000000000001
 Gap [au]:  0.31357117
 ALPHA OCC:   4   1   1   0
 BETA  OCC:   4   1   1   0
 
 ***HARTREE-FOCK ENERGY IN STEP  24 IS     -78.9006681251150042 [AU]
 ======================================================================
 
 SUCCESS...
 THE SCF ITERATION HAS CONVERGED!
 
                   A1  B1  B2  A2  
 FINAL ALPHA OCC:   4   1   1   0
 FINAL BETA  OCC:   4   1   1   0
 
 ***FINAL HARTREE-FOCK ENERGY:    -78.9006681251150042 [AU]
 
 Orbital energies [au]:
      Irrep         Alpha          Beta
    1   A1       -15.614518     -15.614518
    2   A1        -7.736374      -7.736374
    3   A1        -1.064444      -1.064444
    4   A1        -0.497051      -0.497051
    5   B2        -0.420850      -0.420850
    6   B1        -0.420850      -0.420850
 
    7   A1        -0.107279      -0.107279
    8   B2         0.104483       0.104483
    9   B1         0.104483       0.104483
   10   A1         0.147404       0.147404
   11   A1         0.163554       0.163554
   12   B1         0.245542       0.245542
   13   B2         0.245542       0.245542
   14   A1         0.450968       0.450968
   15   A1         0.526759       0.526759
   16   A2         0.526759       0.526759
   17   A1         0.536312       0.536312
   18   B2         0.582249       0.582249
   19   B1         0.582249       0.582249
   20   A1         0.659235       0.659235
   21   B2         0.678072       0.678072
   22   B1         0.678072       0.678072
   23   A1         0.890113       0.890113
   24   A1         1.043727       1.043727
   25   B1         1.086486       1.086486
   26   B2         1.086486       1.086486
   27   A1         1.185006       1.185006
   28   A1         1.353074       1.353074
   29   A2         1.353074       1.353074
   30   B2         1.617899       1.617899
   31   B1         1.617899       1.617899
   32   A1         1.860158       1.860158
   33   B2         1.906735       1.906735
   34   B1         1.906735       1.906735
   35   A1         1.998722       1.998722
   36   A2         1.998722       1.998722
   37   B2         2.034240       2.034240
   38   B1         2.034240       2.034240
   39   A2         2.105660       2.105660
   40   A1         2.105660       2.105660
   41   A1         2.197763       2.197763
   42   B2         2.385941       2.385941
   43   B1         2.385941       2.385941
   44   A1         2.422301       2.422301
   45   A1         2.807902       2.807902
   46   B2         2.816764       2.816764
   47   B1         2.816764       2.816764
   48   A1         3.449303       3.449303
   49   B1         4.325474       4.325474
   50   B2         4.325474       4.325474
   51   A2         4.557355       4.557355
   52   A1         4.557355       4.557355
   53   B2         4.941585       4.941585
   54   B1         4.941585       4.941585
   55   A1         5.003135       5.003135
   56   A2         5.003135       5.003135
   57   A1         5.195163       5.195163
   58   B2         5.334661       5.334661
   59   B1         5.334661       5.334661
   60   A1         5.564379       5.564379
   61   A1        14.468923      14.468923
   62   A1        32.856396      32.856396
 
 RETURNING FROM SCF ALGORITHM
 ======================================================================

 ************************ 2021-07-31 17:35:55 *************************
 Executing ovirt...

 ovirt, the routine of orbital optimization and integral transformation 
Sat Jul 31 17:35:55 EDT 2021
 memory =                  57344  Mb            7516192768  8 byte word
 mrccboot = T
 scftype  = rhf  
 localcc  = off 
 core     = frozen
 ovirt    = off  
 ccprog   = mrcc
 dfnbasis =                      0
 dfbasis_cor =none                
 lmp2dens = on 
 dens =                      0
 verblev =                      3
 task     =                      4
 epsilon =   0.975000000000000     
 lmp2= on 
 localNO  =  F
 localMP2 =  F
 localMP2_TEST =  F
 LMP2_shortcut =  F
 FOCKTR   =  T
 Allocated memory:                   57344  Mb
 onbasis=                    62
 RHF calculation! 
 integral transforamtion: AOs ------ MOs
 # of basis functions, # of int. blocks    62     1
100 % 
 second part
100 %
 integral transformation is completed! 
CPU and WC time           1.06           1.29     AOs -> MOs 
 occupied and 
     1 -1.0644435286
     2 -0.4970509527
     3 -0.4208501973
     4 -0.4208501973
               virtual energies 
     5 -0.1072790312
     6  0.1044827469
     7  0.1044827469
     8  0.1474036536
     9  0.1635539546
    10  0.2455418434
    11  0.2455418434
    12  0.4509681077
    13  0.5267592884
    14  0.5267592884
    15  0.5363121278
    16  0.5822493480
    17  0.5822493480
    18  0.6592346188
    19  0.6780720872
    20  0.6780720872
    21  0.8901133785
    22  1.0437273967
    23  1.0864858992
    24  1.0864858992
    25  1.1850056995
    26  1.3530739397
    27  1.3530739397
    28  1.6178986181
    29  1.6178986181
    30  1.8601580304
    31  1.9067354310
    32  1.9067354310
    33  1.9987224302
    34  1.9987224302
    35  2.0342395091
    36  2.0342395091
    37  2.1056595541
    38  2.1056595541
    39  2.1977628770
    40  2.3859406413
    41  2.3859406413
    42  2.4223006174
    43  2.8079020437
    44  2.8167638183
    45  2.8167638183
    46  3.4493032478
    47  4.3254744408
    48  4.3254744408
    49  4.5573547135
    50  4.5573547135
    51  4.9415853659
    52  4.9415853659
    53  5.0031353952
    54  5.0031353952
    55  5.1951631419
    56  5.3346605109
    57  5.3346605109
    58  5.5643788634
    59 14.4689234083
    60 32.8563962911
 inttol =   1.000000000000000E-018   18.0000000000000     
Integrals are written to fort.55
Sat Jul 31 17:35:59 EDT 2021
  ovirt terminated normally 

 ************************ 2021-07-31 17:35:59 *************************
 Executing goldstone...

 Generation of CC equations in terms of H and T...
 Generation of antisymmetrized Goldstone diagrams...
 Number of diagrams in T^1 equations:    15
 Number of diagrams in T^2 equations:    38
 Number of diagrams in T^3 equations:    54
 Number of diagrams in T^4 equations:    76
 Number of diagrams in T^5 equations:     8
 Translation of diagrams to factorized equations...
 Optimizing intermediate calculation...
 Number of floating-point operations per iteration step:   9.7314E+12
 Probable CPU time per iteration step (hours):     97.31
 Required memory (Mbytes):   14329.2
 Number of intermediates:                                 118
 Number of intermediates to be stored:                     52
 Length of intermediate file (Mbytes):    1462.1

 ************************ 2021-07-31 17:35:59 *************************
 Executing xmrcc...

 **********************************************************************
 CC(4)(5) calculation 
 
 
 Allocation of****** Mbytes of memory...
 Number of spinorbitals:                   120
 Number of alpha electrons:                        4
 Number of beta electrons:                         4
 Spin multiplicity:                     1
 z-component of spin:  0.0
 Spatial symmetry:                      1
 Convergence criterion:  1.0E-05
 Construction of occupation graphs...
 Number of                     0 -fold excitations:                      1
 Number of                     1 -fold excitations:                    148
 Number of                     2 -fold excitations:                  17832
 Number of                     3 -fold excitations:                1089372
 Number of                     4 -fold excitations:               33912638
 Total number of configurations:               35019991
 Calculation of coupling coefficients...
 Length of intermediate file (Mbytes):     946.2
 
 ======================================================================
 
 Spin case  1   Alpha:  1   Beta:  4
 Number of excitations:               20562408
 Spin case  2   Alpha:  2   Beta:  3
 Number of excitations:              256132800
 Number of                     5 -fold excitations:              553390416
 
 Memory requirements /Mbyte/: 
               Minimal        Optimal
 Real*8:       1251.4609      1251.4609
 Integer:       119.8165
 Total:        1371.2774      1371.2774
 

 ************************ 2021-07-31 17:36:02 *************************
 Executing goldstone...

 Generation of CC equations in terms of H and T...
 Generation of antisymmetrized Goldstone diagrams...
 Number of diagrams in T^1 equations:    15
 Number of diagrams in T^2 equations:    33
 Number of diagrams in T^3 equations:     2
 Translation of diagrams to factorized equations...
 Optimizing intermediate calculation...
 Number of floating-point operations per iteration step:   1.1223E+09
 Probable CPU time per iteration step (hours):      0.01
 Required memory (Mbytes):    1299.5
 Number of intermediates:                                  48
 Number of intermediates to be stored:                     20
 Length of intermediate file (Mbytes):      49.3

 ************************ 2021-07-31 17:36:02 *************************
 Executing xmrcc...

 **********************************************************************
 CC(2)(3) calculation 
 
 
 Allocation of1299.5 Mbytes of memory...
 Number of spinorbitals:                   120
 Number of alpha electrons:                        4
 Number of beta electrons:                         4
 Spin multiplicity:                     1
 z-component of spin:  0.0
 Spatial symmetry:                      1
 Convergence criterion:  1.0E-05
 Construction of occupation graphs...
 Number of                     0 -fold excitations:                      1
 Number of                     1 -fold excitations:                    148
 Number of                     2 -fold excitations:                  17832
 Total number of configurations:                  17981
 Calculation of coupling coefficients...
 Length of intermediate file (Mbytes):      38.2
 
 ======================================================================
 
 Spin case  1   Alpha:  0   Beta:  3
 Number of excitations:                  27246
 Spin case  2   Alpha:  1   Beta:  2
 Number of excitations:                 517440
 Number of                     3 -fold excitations:                1089372
 
 Memory requirements /Mbyte/: 
               Minimal        Optimal
 Real*8:         20.5438        98.9358
 Integer:         0.5259
 Total:          21.0698        99.4617
 

 ************************ 2021-07-31 17:36:02 *************************
 Executing mrcc...

 **********************************************************************
 CCSD(T) calculation                                                    
 
 
 OpenMP parallel version is running.
 Number of CPU cores:   1
 Allocation of   98.9 Mbytes of memory...
 Number of spinorbitals: 120
 Number of alpha electrons:  4
 Number of beta  electrons:  4
 Spin multiplicity: 1
 z-component of spin:  0.0
 Spatial symmetry: 1
 Convergence criterion:  1.0E-05
 Construction of occupation graphs...
 Number of 0-fold excitations: 1
 Number of 1-fold excitations: 148
 Number of 2-fold excitations: 17832
 Total number of determinants: 17981
 Calculation of coupling coefficients...
 Initial cluster amplitudes are generated.
 Length of intermediate file (Mbytes):      38.2
 Reading integral list from unit 55...
 Sorting integrals...
 Calculation of MP denominators...
 
 Starting CC iteration...
 ======================================================================
 Norm of residual vector:     1.01682668
 CPU time [min]:     0.053                   Wall time [min]:     0.427
 
 Iteration  1  CC energy:   -79.25111926  Energy decrease:   0.35045114
 ======================================================================
 Norm of residual vector:     0.29528517
 CPU time [min]:     0.079                   Wall time [min]:     0.453
 
 Iteration  2  CC energy:   -79.20826540  Energy decrease:   0.04285386
 ======================================================================
 Norm of residual vector:     0.09594494
 CPU time [min]:     0.104                   Wall time [min]:     0.479
 
 Iteration  3  CC energy:   -79.22111742  Energy decrease:   0.01285202
 ======================================================================
 Norm of residual vector:     0.04528143
 CPU time [min]:     0.130                   Wall time [min]:     0.504
 
 Iteration  4  CC energy:   -79.22991195  Energy decrease:   0.00879453
 ======================================================================
 Norm of residual vector:     0.02400357
 CPU time [min]:     0.156                   Wall time [min]:     0.530
 
 Iteration  5  CC energy:   -79.23211105  Energy decrease:   0.00219910
 ======================================================================
 Norm of residual vector:     0.00959447
 CPU time [min]:     0.181                   Wall time [min]:     0.556
 
 Iteration  6  CC energy:   -79.23295828  Energy decrease:   0.00084723
 ======================================================================
 Norm of residual vector:     0.00419149
 CPU time [min]:     0.207                   Wall time [min]:     0.582
 
 Iteration  7  CC energy:   -79.23302315  Energy decrease:   0.00006487
 ======================================================================
 Norm of residual vector:     0.00194978
 CPU time [min]:     0.233                   Wall time [min]:     0.608
 
 Iteration  8  CC energy:   -79.23301294  Energy decrease:   0.00001021
 ======================================================================
 Norm of residual vector:     0.00076599
 CPU time [min]:     0.258                   Wall time [min]:     0.634
 
 Iteration  9  CC energy:   -79.23302326  Energy decrease:   0.00001033
 ======================================================================
 Norm of residual vector:     0.00024088
 CPU time [min]:     0.284                   Wall time [min]:     0.660
 
 Iteration 10  CC energy:   -79.23301230  Energy decrease:   0.00001096
 ======================================================================
 Norm of residual vector:     0.00007234
 CPU time [min]:     0.310                   Wall time [min]:     0.686
 
 Iteration 11  CC energy:   -79.23300697  Energy decrease:   0.00000533
 ======================================================================
 Norm of residual vector:     0.00002606
 CPU time [min]:     0.336                   Wall time [min]:     0.712
 
 Iteration 12  CC energy:   -79.23300729  Energy decrease:   0.00000032
 ======================================================================
 Norm of residual vector:     0.00000852
 CPU time [min]:     0.361                   Wall time [min]:     0.737
 
 Iteration 13  CC energy:   -79.23300769  Energy decrease:   0.00000040
 ======================================================================
 
 Iteration has converged in 13 steps.
 
 Final results:
 Total CCSD energy [au]:             -79.233007689553
 Total MP2 energy [au]:              -79.251119263997
 
 Perturbative corrections are calculated...
 ======================================================================
 Spin case  1   Alpha:  0   Beta:  3
 Number of excitations:        27246
 CPU time [min]:     0.366                   Wall time [min]:     0.742
 ======================================================================
 Spin case  2   Alpha:  1   Beta:  2
 Number of excitations:        517440
 CPU time [min]:     0.391                   Wall time [min]:     0.768
 ======================================================================
 Number of 3-fold excitations: 1089372
 CPU time [min]:     0.391                   Wall time [min]:     0.768
 
 Total CCSD[T] energy [au]:          -79.274048219763
 Total CCSD(T) energy [au]:          -79.266264806482
 
 Dominant cluster amplitudes
 Printing threshold:  1.00E-02
 
    1.000000  Reference determinant                                     
    0.049690  3b -> 7b                                                  
    0.130467  4b -> 7b                                                  
    0.020243  4b -> 10b                                                 
    0.024871  4b -> 11b                                                 
    0.010123  4b -> 14b                                                 
    0.018506  4b -> 17b                                                 
   -0.010231  4b -> 20b                                                 
   -0.012771  4b -> 23b                                                 
    0.025519  4b -> 24b                                                 
   -0.011622  6b -> 9b                                                  
   -0.020872  6b -> 12b                                                 
    0.012864  6b -> 19b                                                 
    0.018692  6b -> 22b                                                 
   -0.010029  6b -> 31b                                                 
    0.011369  6b -> 43b                                                 
   -0.011622  5b -> 8b                                                  
   -0.020872  5b -> 13b                                                 
   -0.012864  5b -> 18b                                                 
   -0.018692  5b -> 21b                                                 
   -0.010029  5b -> 30b                                                 
    0.011369  5b -> 42b                                                 
    0.049690  3a -> 7a                                                  
    0.130467  4a -> 7a                                                  
    0.020243  4a -> 10a                                                 
    0.024871  4a -> 11a                                                 
    0.010123  4a -> 14a                                                 
    0.018506  4a -> 17a                                                 
   -0.010231  4a -> 20a                                                 
   -0.012771  4a -> 23a                                                 
    0.025519  4a -> 24a                                                 
   -0.011622  6a -> 9a                                                  
   -0.020872  6a -> 12a                                                 
    0.012864  6a -> 19a                                                 
    0.018692  6a -> 22a                                                 
   -0.010029  6a -> 31a                                                 
    0.011369  6a -> 43a                                                 
   -0.011622  5a -> 8a                                                  
   -0.020872  5a -> 13a                                                 
   -0.012864  5a -> 18a                                                 
   -0.018692  5a -> 21a                                                 
   -0.010029  5a -> 30a                                                 
    0.011369  5a -> 42a                                                 
    0.010335  3b 4b -> 7b 17b                                           
    0.020806  4b 6b -> 7b 9b                                            
    0.010902  4b 6b -> 7b 12b                                           
    0.020806  4b 5b -> 7b 8b                                            
    0.010902  4b 5b -> 7b 13b                                           
   -0.021327  5b 6b -> 8b 9b                                            
   -0.011099  5b 6b -> 8b 12b                                           
    0.011099  5b 6b -> 9b 13b                                           
    0.014564  5b 6b -> 12b 13b                                          
    0.012316  5b 6b -> 15b 16b                                          
   -0.010569  5b 6b -> 9b 18b                                           
   -0.010569  5b 6b -> 8b 19b                                           
    0.010743  5b 6b -> 18b 19b                                          
   -0.013915  5b 6b -> 28b 29b                                          
   -0.015458  3a 3b -> 7a 7b                                            
    0.010126  3a 3b -> 14a 7b                                           
    0.010126  3a 3b -> 7a 14b                                           
   -0.010079  3a 3b -> 24a 17b                                          
   -0.010079  3a 3b -> 17a 24b                                          
   -0.013782  3a 3b -> 24a 24b                                          
    0.012663  4a 3b -> 7a 7b                                            
   -0.010150  4a 3b -> 20a 7b                                           
    0.011352  4a 3b -> 27a 7b                                           
    0.010201  4a 3b -> 7a 10b                                           
    0.012663  3a 4b -> 7a 7b                                            
    0.010201  3a 4b -> 10a 7b                                           
   -0.010150  3a 4b -> 7a 20b                                           
    0.011352  3a 4b -> 7a 27b                                           
   -0.221676  4a 4b -> 7a 7b                                            
   -0.033254  4a 4b -> 10a 7b                                           
   -0.043079  4a 4b -> 11a 7b                                           
    0.028642  4a 4b -> 14a 7b                                           
    0.012575  4a 4b -> 17a 7b                                           
   -0.025228  4a 4b -> 20a 7b                                           
    0.010971  4a 4b -> 23a 7b                                           
    0.021041  4a 4b -> 24a 7b                                           
   -0.033254  4a 4b -> 7a 10b                                           
   -0.043079  4a 4b -> 7a 11b                                           
   -0.010607  4a 4b -> 11a 11b                                          
    0.028642  4a 4b -> 7a 14b                                           
   -0.010462  4a 4b -> 14a 14b                                          
    0.012575  4a 4b -> 7a 17b                                           
   -0.025228  4a 4b -> 7a 20b                                           
    0.010971  4a 4b -> 7a 23b                                           
    0.021041  4a 4b -> 7a 24b                                           
   -0.053482  6a 6b -> 7a 7b                                            
   -0.011428  6a 6b -> 10a 7b                                           
    0.013211  6a 6b -> 14a 7b                                           
   -0.011428  6a 6b -> 7a 10b                                           
    0.013211  6a 6b -> 7a 14b                                           
   -0.012794  6a 6b -> 28a 28b                                          
   -0.053482  5a 5b -> 7a 7b                                            
   -0.011428  5a 5b -> 10a 7b                                           
    0.013211  5a 5b -> 14a 7b                                           
   -0.011428  5a 5b -> 7a 10b                                           
    0.013211  5a 5b -> 7a 14b                                           
   -0.012794  5a 5b -> 28a 28b                                          
   -0.027977  4a 4b -> 9a 9b                                            
   -0.022187  4a 4b -> 12a 9b                                           
   -0.022187  4a 4b -> 9a 12b                                           
   -0.020342  4a 4b -> 12a 12b                                          
   -0.067086  6a 6b -> 9a 9b                                            
   -0.038635  6a 6b -> 12a 9b                                           
   -0.027639  6a 6b -> 19a 9b                                           
   -0.024798  6a 6b -> 22a 9b                                           
   -0.038635  6a 6b -> 9a 12b                                           
   -0.034290  6a 6b -> 12a 12b                                          
   -0.017299  6a 6b -> 22a 12b                                          
   -0.027639  6a 6b -> 9a 19b                                           
   -0.021849  6a 6b -> 19a 19b                                          
   -0.011090  6a 6b -> 22a 19b                                          
   -0.024798  6a 6b -> 9a 22b                                           
   -0.017299  6a 6b -> 12a 22b                                          
   -0.011090  6a 6b -> 19a 22b                                          
   -0.017543  6a 6b -> 22a 22b                                          
   -0.010460  6a 6b -> 31a 31b                                          
   -0.027977  4a 4b -> 8a 8b                                            
   -0.022187  4a 4b -> 13a 8b                                           
   -0.022187  4a 4b -> 8a 13b                                           
   -0.020342  4a 4b -> 13a 13b                                          
   -0.067086  5a 5b -> 8a 8b                                            
   -0.038635  5a 5b -> 13a 8b                                           
    0.027639  5a 5b -> 18a 8b                                           
    0.024798  5a 5b -> 21a 8b                                           
   -0.038635  5a 5b -> 8a 13b                                           
   -0.034290  5a 5b -> 13a 13b                                          
    0.017299  5a 5b -> 21a 13b                                          
    0.027639  5a 5b -> 8a 18b                                           
   -0.021849  5a 5b -> 18a 18b                                          
   -0.011090  5a 5b -> 21a 18b                                          
    0.024798  5a 5b -> 8a 21b                                           
    0.017299  5a 5b -> 13a 21b                                          
   -0.011090  5a 5b -> 18a 21b                                          
   -0.017543  5a 5b -> 21a 21b                                          
   -0.010460  5a 5b -> 30a 30b                                          
   -0.012794  6a 6b -> 29a 29b                                          
   -0.012794  5a 5b -> 29a 29b                                          
    0.013039  3a 6b -> 17a 9b                                           
    0.011096  3a 6b -> 24a 9b                                           
   -0.016698  3a 6b -> 7a 31b                                           
    0.069156  4a 6b -> 7a 9b                                            
    0.011054  4a 6b -> 10a 9b                                           
    0.013882  4a 6b -> 11a 9b                                           
   -0.014829  4a 6b -> 14a 9b                                           
    0.010055  4a 6b -> 20a 9b                                           
    0.040587  4a 6b -> 7a 12b                                           
    0.012457  4a 6b -> 10a 12b                                          
    0.011105  4a 6b -> 11a 12b                                          
   -0.010230  4a 6b -> 24a 12b                                          
    0.021324  4a 6b -> 7a 19b                                           
    0.015860  4a 6b -> 7a 22b                                           
    0.048350  6a 4b -> 7a 9b                                            
    0.010774  6a 4b -> 10a 9b                                           
   -0.012700  6a 4b -> 14a 9b                                           
   -0.011367  6a 4b -> 15a 9b                                           
    0.029685  6a 4b -> 7a 12b                                           
   -0.010070  6a 4b -> 15a 12b                                          
    0.012194  6a 4b -> 7a 19b                                           
    0.010573  6a 4b -> 7a 22b                                           
    0.048350  4a 6b -> 9a 7b                                            
    0.029685  4a 6b -> 12a 7b                                           
    0.012194  4a 6b -> 19a 7b                                           
    0.010573  4a 6b -> 22a 7b                                           
    0.010774  4a 6b -> 9a 10b                                           
   -0.012700  4a 6b -> 9a 14b                                           
   -0.011367  4a 6b -> 9a 15b                                           
   -0.010070  4a 6b -> 12a 15b                                          
   -0.016698  6a 3b -> 31a 7b                                           
    0.013039  6a 3b -> 9a 17b                                           
    0.011096  6a 3b -> 9a 24b                                           
    0.069156  6a 4b -> 9a 7b                                            
    0.040587  6a 4b -> 12a 7b                                           
    0.021324  6a 4b -> 19a 7b                                           
    0.015860  6a 4b -> 22a 7b                                           
    0.011054  6a 4b -> 9a 10b                                           
    0.012457  6a 4b -> 12a 10b                                          
    0.013882  6a 4b -> 9a 11b                                           
    0.011105  6a 4b -> 12a 11b                                          
   -0.014829  6a 4b -> 9a 14b                                           
    0.010055  6a 4b -> 9a 20b                                           
   -0.010230  6a 4b -> 12a 24b                                          
   -0.011367  4a 6b -> 8a 16b                                           
   -0.010070  4a 6b -> 13a 16b                                          
   -0.011367  6a 4b -> 16a 8b                                           
   -0.010070  6a 4b -> 16a 13b                                          
    0.013039  3a 5b -> 17a 8b                                           
    0.011096  3a 5b -> 24a 8b                                           
   -0.016698  3a 5b -> 7a 30b                                           
    0.069156  4a 5b -> 7a 8b                                            
    0.011054  4a 5b -> 10a 8b                                           
    0.013882  4a 5b -> 11a 8b                                           
   -0.014829  4a 5b -> 14a 8b                                           
    0.010055  4a 5b -> 20a 8b                                           
    0.040587  4a 5b -> 7a 13b                                           
    0.012457  4a 5b -> 10a 13b                                          
    0.011105  4a 5b -> 11a 13b                                          
   -0.010230  4a 5b -> 24a 13b                                          
   -0.021324  4a 5b -> 7a 18b                                           
   -0.015860  4a 5b -> 7a 21b                                           
    0.048350  5a 4b -> 7a 8b                                            
    0.010774  5a 4b -> 10a 8b                                           
   -0.012700  5a 4b -> 14a 8b                                           
    0.011367  5a 4b -> 15a 8b                                           
    0.029685  5a 4b -> 7a 13b                                           
    0.010070  5a 4b -> 15a 13b                                          
   -0.012194  5a 4b -> 7a 18b                                           
   -0.010573  5a 4b -> 7a 21b                                           
   -0.011367  4a 5b -> 9a 16b                                           
   -0.010070  4a 5b -> 12a 16b                                          
    0.048350  4a 5b -> 8a 7b                                            
    0.029685  4a 5b -> 13a 7b                                           
   -0.012194  4a 5b -> 18a 7b                                           
   -0.010573  4a 5b -> 21a 7b                                           
    0.010774  4a 5b -> 8a 10b                                           
   -0.012700  4a 5b -> 8a 14b                                           
    0.011367  4a 5b -> 8a 15b                                           
    0.010070  4a 5b -> 13a 15b                                          
   -0.016698  5a 3b -> 30a 7b                                           
    0.013039  5a 3b -> 8a 17b                                           
    0.011096  5a 3b -> 8a 24b                                           
    0.069156  5a 4b -> 8a 7b                                            
    0.040587  5a 4b -> 13a 7b                                           
   -0.021324  5a 4b -> 18a 7b                                           
   -0.015860  5a 4b -> 21a 7b                                           
    0.011054  5a 4b -> 8a 10b                                           
    0.012457  5a 4b -> 13a 10b                                          
    0.013882  5a 4b -> 8a 11b                                           
    0.011105  5a 4b -> 13a 11b                                          
   -0.014829  5a 4b -> 8a 14b                                           
    0.010055  5a 4b -> 8a 20b                                           
   -0.010230  5a 4b -> 13a 24b                                          
   -0.011367  5a 4b -> 16a 9b                                           
   -0.010070  5a 4b -> 16a 12b                                          
   -0.040091  6a 5b -> 9a 8b                                            
   -0.022373  6a 5b -> 12a 8b                                           
   -0.017477  6a 5b -> 19a 8b                                           
   -0.014008  6a 5b -> 22a 8b                                           
   -0.022373  6a 5b -> 9a 13b                                           
   -0.022559  6a 5b -> 12a 13b                                          
   -0.010052  6a 5b -> 22a 13b                                          
    0.017477  6a 5b -> 9a 18b                                           
    0.015208  6a 5b -> 19a 18b                                          
    0.014008  6a 5b -> 9a 21b                                           
    0.010052  6a 5b -> 12a 21b                                          
    0.010952  6a 5b -> 22a 21b                                          
   -0.018765  5a 6b -> 9a 8b                                            
   -0.011274  5a 6b -> 12a 8b                                           
   -0.011274  5a 6b -> 9a 13b                                           
   -0.018765  6a 5b -> 8a 9b                                            
   -0.011274  6a 5b -> 13a 9b                                           
   -0.011274  6a 5b -> 8a 12b                                           
   -0.040091  5a 6b -> 8a 9b                                            
   -0.022373  5a 6b -> 13a 9b                                           
    0.017477  5a 6b -> 18a 9b                                           
    0.014008  5a 6b -> 21a 9b                                           
   -0.022373  5a 6b -> 8a 12b                                           
   -0.022559  5a 6b -> 13a 12b                                          
    0.010052  5a 6b -> 21a 12b                                          
   -0.017477  5a 6b -> 8a 19b                                           
    0.015208  5a 6b -> 18a 19b                                          
   -0.014008  5a 6b -> 8a 22b                                           
   -0.010052  5a 6b -> 13a 22b                                          
    0.010952  5a 6b -> 21a 22b                                          
    0.010335  3a 4a -> 7a 17a                                           
    0.020806  4a 6a -> 7a 9a                                            
    0.010902  4a 6a -> 7a 12a                                           
    0.020806  4a 5a -> 7a 8a                                            
    0.010902  4a 5a -> 7a 13a                                           
   -0.021327  5a 6a -> 8a 9a                                            
   -0.011099  5a 6a -> 8a 12a                                           
    0.011099  5a 6a -> 9a 13a                                           
    0.014564  5a 6a -> 12a 13a                                          
    0.012316  5a 6a -> 15a 16a                                          
   -0.010569  5a 6a -> 9a 18a                                           
   -0.010569  5a 6a -> 8a 19a                                           
    0.010743  5a 6a -> 18a 19a                                          
   -0.013915  5a 6a -> 28a 29a                                          

 ************************ 2021-07-31 17:36:48 *************************
 Executing goldstone...

 Generation of CC equations in terms of H and T...
 Generation of antisymmetrized Goldstone diagrams...
 Number of diagrams in T^1 equations:    15
 Number of diagrams in T^2 equations:    38
 Number of diagrams in T^3 equations:    49
 Number of diagrams in T^4 equations:     5
 Translation of diagrams to factorized equations...
 Optimizing intermediate calculation...
 Number of floating-point operations per iteration step:   1.6438E+11
 Probable CPU time per iteration step (hours):      1.64
 Required memory (Mbytes):    1299.5
 Number of intermediates:                                  79
 Number of intermediates to be stored:                     32
 Length of intermediate file (Mbytes):      61.1

 ************************ 2021-07-31 17:36:49 *************************
 Executing xmrcc...

 **********************************************************************
 CC(3)(4) calculation 
 
 
 Allocation of1299.5 Mbytes of memory...
 Number of spinorbitals:                   120
 Number of alpha electrons:                        4
 Number of beta electrons:                         4
 Spin multiplicity:                     1
 z-component of spin:  0.0
 Spatial symmetry:                      1
 Convergence criterion:  1.0E-05
 Construction of occupation graphs...
 Number of                     0 -fold excitations:                      1
 Number of                     1 -fold excitations:                    148
 Number of                     2 -fold excitations:                  17832
 Number of                     3 -fold excitations:                1089372
 Total number of configurations:                1107353
 Calculation of coupling coefficients...
 Length of intermediate file (Mbytes):      46.9
 
 ======================================================================
 
 Spin case  1   Alpha:  0   Beta:  4
 Number of excitations:                  91703
 Spin case  2   Alpha:  1   Beta:  3
 Number of excitations:                6192216
 Spin case  3   Alpha:  2   Beta:  2
 Number of excitations:               21344800
 Number of                     4 -fold excitations:               33912638
 
 Memory requirements /Mbyte/: 
               Minimal        Optimal
 Real*8:         50.2963        98.9358
 Integer:         5.7551
 Total:          56.0515       104.6909
 

 ************************ 2021-07-31 17:36:49 *************************
 Executing mrcc...

 **********************************************************************
 CCSDT(Q) calculation                                                   
 
 
 OpenMP parallel version is running.
 Number of CPU cores:   1
 Allocation of   98.9 Mbytes of memory...
 Number of spinorbitals: 120
 Number of alpha electrons:  4
 Number of beta  electrons:  4
 Spin multiplicity: 1
 z-component of spin:  0.0
 Spatial symmetry: 1
 Convergence criterion:  1.0E-05
 Construction of occupation graphs...
 Number of 0-fold excitations: 1
 Number of 1-fold excitations: 148
 Number of 2-fold excitations: 17832
 Number of 3-fold excitations: 1089372
 Total number of determinants: 1107353
 Calculation of coupling coefficients...
 Initial cluster amplitudes are read from unit 16.
 Length of intermediate file (Mbytes):      46.9
 Reading integral list from unit 55...
 Sorting integrals...
 Calculation of MP denominators...
 
 Starting CC iteration...
 ======================================================================
 Norm of residual vector:     0.35262611
 CPU time [min]:     0.168                   Wall time [min]:     0.178
 
 Iteration  1  CC energy:   -79.23300758  Energy decrease:   0.00000011
 ======================================================================
 Norm of residual vector:     0.13463640
 CPU time [min]:     0.330                   Wall time [min]:     0.350
 
 Iteration  2  CC energy:   -79.25233458  Energy decrease:   0.01932700
 ======================================================================
 Norm of residual vector:     0.05216986
 CPU time [min]:     0.484                   Wall time [min]:     0.514
 
 Iteration  3  CC energy:   -79.25890620  Energy decrease:   0.00657162
 ======================================================================
 Norm of residual vector:     0.02599153
 CPU time [min]:     0.639                   Wall time [min]:     0.670
 
 Iteration  4  CC energy:   -79.26024890  Energy decrease:   0.00134270
 ======================================================================
 Norm of residual vector:     0.01372621
 CPU time [min]:     0.795                   Wall time [min]:     0.828
 
 Iteration  5  CC energy:   -79.26281926  Energy decrease:   0.00257037
 ======================================================================
 Norm of residual vector:     0.00743337
 CPU time [min]:     0.952                   Wall time [min]:     0.986
 
 Iteration  6  CC energy:   -79.26350378  Energy decrease:   0.00068452
 ======================================================================
 Norm of residual vector:     0.00434102
 CPU time [min]:     1.110                   Wall time [min]:     1.146
 
 Iteration  7  CC energy:   -79.26379708  Energy decrease:   0.00029330
 ======================================================================
 Norm of residual vector:     0.00232621
 CPU time [min]:     1.271                   Wall time [min]:     1.308
 
 Iteration  8  CC energy:   -79.26402960  Energy decrease:   0.00023251
 ======================================================================
 Norm of residual vector:     0.00132108
 CPU time [min]:     1.432                   Wall time [min]:     1.470
 
 Iteration  9  CC energy:   -79.26405394  Energy decrease:   0.00002434
 ======================================================================
 Norm of residual vector:     0.00082121
 CPU time [min]:     1.594                   Wall time [min]:     1.634
 
 Iteration 10  CC energy:   -79.26402477  Energy decrease:   0.00002916
 ======================================================================
 Norm of residual vector:     0.00046184
 CPU time [min]:     1.758                   Wall time [min]:     1.798
 
 Iteration 11  CC energy:   -79.26403067  Energy decrease:   0.00000590
 ======================================================================
 Norm of residual vector:     0.00022536
 CPU time [min]:     1.923                   Wall time [min]:     1.964
 
 Iteration 12  CC energy:   -79.26402677  Energy decrease:   0.00000390
 ======================================================================
 Norm of residual vector:     0.00011032
 CPU time [min]:     2.089                   Wall time [min]:     2.131
 
 Iteration 13  CC energy:   -79.26402514  Energy decrease:   0.00000163
 ======================================================================
 Norm of residual vector:     0.00005583
 CPU time [min]:     2.256                   Wall time [min]:     2.299
 
 Iteration 14  CC energy:   -79.26402780  Energy decrease:   0.00000266
 ======================================================================
 Norm of residual vector:     0.00003036
 CPU time [min]:     2.425                   Wall time [min]:     2.468
 
 Iteration 15  CC energy:   -79.26402797  Energy decrease:   0.00000017
 ======================================================================
 Norm of residual vector:     0.00001393
 CPU time [min]:     2.595                   Wall time [min]:     2.639
 
 Iteration 16  CC energy:   -79.26402897  Energy decrease:   0.00000100
 ======================================================================
 Norm of residual vector:     0.00000623
 CPU time [min]:     2.743                   Wall time [min]:     2.787
 
 Iteration 17  CC energy:   -79.26402912  Energy decrease:   0.00000015
 ======================================================================
 
 Iteration has converged in 17 steps.
 
 Final results:
 Total CCSDT energy [au]:            -79.264029117429
 
 Perturbative corrections are calculated...
 ======================================================================
 Spin case  1   Alpha:  0   Beta:  4
 Number of excitations:        91703
 CPU time [min]:     3.074                   Wall time [min]:     3.118
 ======================================================================
 Spin case  2   Alpha:  1   Beta:  3
 Number of excitations:        6192216
 CPU time [min]:     7.305                   Wall time [min]:     7.351
 ======================================================================
 Spin case  3   Alpha:  2   Beta:  2
 Number of excitations:        21344800
 CPU time [min]:    15.931                   Wall time [min]:    15.979
 ======================================================================
 Number of 4-fold excitations: 33912638
 CPU time [min]:    15.931                   Wall time [min]:    15.979
 
 Total CCSDT[Q] energy [au]:         -79.263393889565
 Total CCSDT(Q) energy [au]:         -79.268830694299
 
 Dominant cluster amplitudes
 Printing threshold:  1.00E-02
 
    1.000000  Reference determinant                                     
    0.055546  3b -> 7b                                                  
    0.147324  4b -> 7b                                                  
    0.023685  4b -> 10b                                                 
    0.027827  4b -> 11b                                                 
    0.020673  4b -> 17b                                                 
   -0.010643  4b -> 20b                                                 
   -0.014499  4b -> 23b                                                 
    0.025993  4b -> 24b                                                 
    0.010894  4b -> 27b                                                 
   -0.015821  6b -> 12b                                                 
    0.010785  6b -> 19b                                                 
    0.019098  6b -> 22b                                                 
   -0.010586  6b -> 31b                                                 
    0.010586  6b -> 43b                                                 
   -0.015821  5b -> 13b                                                 
   -0.010785  5b -> 18b                                                 
   -0.019098  5b -> 21b                                                 
   -0.010586  5b -> 30b                                                 
    0.010586  5b -> 42b                                                 
    0.055546  3a -> 7a                                                  
    0.147324  4a -> 7a                                                  
    0.023685  4a -> 10a                                                 
    0.027827  4a -> 11a                                                 
    0.020673  4a -> 17a                                                 
   -0.010643  4a -> 20a                                                 
   -0.014499  4a -> 23a                                                 
    0.025993  4a -> 24a                                                 
    0.010894  4a -> 27a                                                 
   -0.015821  6a -> 12a                                                 
    0.010785  6a -> 19a                                                 
    0.019098  6a -> 22a                                                 
   -0.010586  6a -> 31a                                                 
    0.010586  6a -> 43a                                                 
   -0.015821  5a -> 13a                                                 
   -0.010785  5a -> 18a                                                 
   -0.019098  5a -> 21a                                                 
   -0.010586  5a -> 30a                                                 
    0.010586  5a -> 42a                                                 
    0.010560  3b 4b -> 7b 17b                                           
    0.022164  4b 6b -> 7b 9b                                            
   -0.010332  4b 6b -> 9b 11b                                           
    0.012924  4b 6b -> 7b 12b                                           
    0.022164  4b 5b -> 7b 8b                                            
   -0.010332  4b 5b -> 8b 11b                                           
    0.012924  4b 5b -> 7b 13b                                           
   -0.024624  5b 6b -> 8b 9b                                            
   -0.013190  5b 6b -> 8b 12b                                           
    0.013190  5b 6b -> 9b 13b                                           
    0.018309  5b 6b -> 12b 13b                                          
    0.014427  5b 6b -> 15b 16b                                          
   -0.011352  5b 6b -> 9b 18b                                           
   -0.011352  5b 6b -> 8b 19b                                           
    0.011889  5b 6b -> 18b 19b                                          
   -0.014525  5b 6b -> 28b 29b                                          
   -0.013751  3a 3b -> 7a 7b                                            
    0.011038  3a 3b -> 14a 7b                                           
    0.011038  3a 3b -> 7a 14b                                           
   -0.010556  3a 3b -> 24a 17b                                          
   -0.010556  3a 3b -> 17a 24b                                          
   -0.014367  3a 3b -> 24a 24b                                          
   -0.011480  4a 3b -> 20a 7b                                           
    0.012055  4a 3b -> 27a 7b                                           
   -0.011480  3a 4b -> 7a 20b                                           
    0.012055  3a 4b -> 7a 27b                                           
   -0.300219  4a 4b -> 7a 7b                                            
   -0.045328  4a 4b -> 10a 7b                                           
   -0.055557  4a 4b -> 11a 7b                                           
    0.032865  4a 4b -> 14a 7b                                           
    0.012865  4a 4b -> 17a 7b                                           
   -0.026618  4a 4b -> 20a 7b                                           
    0.016007  4a 4b -> 23a 7b                                           
    0.020893  4a 4b -> 24a 7b                                           
   -0.045328  4a 4b -> 7a 10b                                           
   -0.011008  4a 4b -> 10a 10b                                          
   -0.055557  4a 4b -> 7a 11b                                           
   -0.012258  4a 4b -> 11a 11b                                          
    0.032865  4a 4b -> 7a 14b                                           
   -0.010460  4a 4b -> 14a 14b                                          
    0.012865  4a 4b -> 7a 17b                                           
   -0.026618  4a 4b -> 7a 20b                                           
    0.016007  4a 4b -> 7a 23b                                           
    0.020893  4a 4b -> 7a 24b                                           
   -0.052206  6a 6b -> 7a 7b                                            
   -0.011264  6a 6b -> 10a 7b                                           
    0.013324  6a 6b -> 14a 7b                                           
   -0.011264  6a 6b -> 7a 10b                                           
    0.013324  6a 6b -> 7a 14b                                           
   -0.010149  6a 6b -> 15a 15b                                          
   -0.013130  6a 6b -> 28a 28b                                          
   -0.052206  5a 5b -> 7a 7b                                            
   -0.011264  5a 5b -> 10a 7b                                           
    0.013324  5a 5b -> 14a 7b                                           
   -0.011264  5a 5b -> 7a 10b                                           
    0.013324  5a 5b -> 7a 14b                                           
   -0.010149  5a 5b -> 15a 15b                                          
   -0.013130  5a 5b -> 28a 28b                                          
   -0.028254  4a 4b -> 9a 9b                                            
   -0.023033  4a 4b -> 12a 9b                                           
   -0.023033  4a 4b -> 9a 12b                                           
   -0.021132  4a 4b -> 12a 12b                                          
   -0.075599  6a 6b -> 9a 9b                                            
   -0.043789  6a 6b -> 12a 9b                                           
   -0.029229  6a 6b -> 19a 9b                                           
   -0.025755  6a 6b -> 22a 9b                                           
   -0.043789  6a 6b -> 9a 12b                                           
   -0.039282  6a 6b -> 12a 12b                                          
   -0.018035  6a 6b -> 22a 12b                                          
   -0.029229  6a 6b -> 9a 19b                                           
   -0.023209  6a 6b -> 19a 19b                                          
   -0.011671  6a 6b -> 22a 19b                                          
   -0.025755  6a 6b -> 9a 22b                                           
   -0.018035  6a 6b -> 12a 22b                                          
   -0.011671  6a 6b -> 19a 22b                                          
   -0.018184  6a 6b -> 22a 22b                                          
   -0.010793  6a 6b -> 31a 31b                                          
   -0.028254  4a 4b -> 8a 8b                                            
   -0.023033  4a 4b -> 13a 8b                                           
   -0.023033  4a 4b -> 8a 13b                                           
   -0.021132  4a 4b -> 13a 13b                                          
   -0.075599  5a 5b -> 8a 8b                                            
   -0.043789  5a 5b -> 13a 8b                                           
    0.029229  5a 5b -> 18a 8b                                           
    0.025755  5a 5b -> 21a 8b                                           
   -0.043789  5a 5b -> 8a 13b                                           
   -0.039282  5a 5b -> 13a 13b                                          
    0.018035  5a 5b -> 21a 13b                                          
    0.029229  5a 5b -> 8a 18b                                           
   -0.023209  5a 5b -> 18a 18b                                          
   -0.011671  5a 5b -> 21a 18b                                          
    0.025755  5a 5b -> 8a 21b                                           
    0.018035  5a 5b -> 13a 21b                                          
   -0.011671  5a 5b -> 18a 21b                                          
   -0.018184  5a 5b -> 21a 21b                                          
   -0.010793  5a 5b -> 30a 30b                                          
   -0.010149  6a 6b -> 16a 16b                                          
   -0.013130  6a 6b -> 29a 29b                                          
   -0.010149  5a 5b -> 16a 16b                                          
   -0.013130  5a 5b -> 29a 29b                                          
    0.013909  3a 6b -> 17a 9b                                           
    0.011705  3a 6b -> 24a 9b                                           
    0.010287  3a 6b -> 17a 19b                                          
   -0.017457  3a 6b -> 7a 31b                                           
    0.084543  4a 6b -> 7a 9b                                            
    0.013511  4a 6b -> 10a 9b                                           
    0.017440  4a 6b -> 11a 9b                                           
   -0.015274  4a 6b -> 14a 9b                                           
    0.050242  4a 6b -> 7a 12b                                           
    0.015335  4a 6b -> 10a 12b                                          
    0.014013  4a 6b -> 11a 12b                                          
   -0.010791  4a 6b -> 23a 12b                                          
    0.022412  4a 6b -> 7a 19b                                           
   -0.010464  4a 6b -> 14a 19b                                          
    0.016561  4a 6b -> 7a 22b                                           
    0.062379  6a 4b -> 7a 9b                                            
    0.013790  6a 4b -> 10a 9b                                           
   -0.014458  6a 4b -> 14a 9b                                           
   -0.012778  6a 4b -> 15a 9b                                           
    0.037318  6a 4b -> 7a 12b                                           
   -0.011402  6a 4b -> 15a 12b                                          
    0.014306  6a 4b -> 7a 19b                                           
    0.013829  6a 4b -> 7a 22b                                           
    0.062379  4a 6b -> 9a 7b                                            
    0.037318  4a 6b -> 12a 7b                                           
    0.014306  4a 6b -> 19a 7b                                           
    0.013829  4a 6b -> 22a 7b                                           
    0.013790  4a 6b -> 9a 10b                                           
   -0.014458  4a 6b -> 9a 14b                                           
   -0.012778  4a 6b -> 9a 15b                                           
   -0.011402  4a 6b -> 12a 15b                                          
   -0.017457  6a 3b -> 31a 7b                                           
    0.013909  6a 3b -> 9a 17b                                           
    0.010287  6a 3b -> 19a 17b                                          
    0.011705  6a 3b -> 9a 24b                                           
    0.084543  6a 4b -> 9a 7b                                            
    0.050242  6a 4b -> 12a 7b                                           
    0.022412  6a 4b -> 19a 7b                                           
    0.016561  6a 4b -> 22a 7b                                           
    0.013511  6a 4b -> 9a 10b                                           
    0.015335  6a 4b -> 12a 10b                                          
    0.017440  6a 4b -> 9a 11b                                           
    0.014013  6a 4b -> 12a 11b                                          
   -0.015274  6a 4b -> 9a 14b                                           
   -0.010464  6a 4b -> 19a 14b                                          
   -0.010791  6a 4b -> 12a 23b                                          
   -0.012778  4a 6b -> 8a 16b                                           
   -0.011402  4a 6b -> 13a 16b                                          
   -0.012778  6a 4b -> 16a 8b                                           
   -0.011402  6a 4b -> 16a 13b                                          
    0.013909  3a 5b -> 17a 8b                                           
    0.011705  3a 5b -> 24a 8b                                           
   -0.010287  3a 5b -> 17a 18b                                          
   -0.017457  3a 5b -> 7a 30b                                           
    0.084543  4a 5b -> 7a 8b                                            
    0.013511  4a 5b -> 10a 8b                                           
    0.017440  4a 5b -> 11a 8b                                           
   -0.015274  4a 5b -> 14a 8b                                           
    0.050242  4a 5b -> 7a 13b                                           
    0.015335  4a 5b -> 10a 13b                                          
    0.014013  4a 5b -> 11a 13b                                          
   -0.010791  4a 5b -> 23a 13b                                          
   -0.022412  4a 5b -> 7a 18b                                           
    0.010464  4a 5b -> 14a 18b                                          
   -0.016561  4a 5b -> 7a 21b                                           
    0.062379  5a 4b -> 7a 8b                                            
    0.013790  5a 4b -> 10a 8b                                           
   -0.014458  5a 4b -> 14a 8b                                           
    0.012778  5a 4b -> 15a 8b                                           
    0.037318  5a 4b -> 7a 13b                                           
    0.011402  5a 4b -> 15a 13b                                          
   -0.014306  5a 4b -> 7a 18b                                           
   -0.013829  5a 4b -> 7a 21b                                           
   -0.012778  4a 5b -> 9a 16b                                           
   -0.011402  4a 5b -> 12a 16b                                          
    0.062379  4a 5b -> 8a 7b                                            
    0.037318  4a 5b -> 13a 7b                                           
   -0.014306  4a 5b -> 18a 7b                                           
   -0.013829  4a 5b -> 21a 7b                                           
    0.013790  4a 5b -> 8a 10b                                           
   -0.014458  4a 5b -> 8a 14b                                           
    0.012778  4a 5b -> 8a 15b                                           
    0.011402  4a 5b -> 13a 15b                                          
   -0.017457  5a 3b -> 30a 7b                                           
    0.013909  5a 3b -> 8a 17b                                           
   -0.010287  5a 3b -> 18a 17b                                          
    0.011705  5a 3b -> 8a 24b                                           
    0.084543  5a 4b -> 8a 7b                                            
    0.050242  5a 4b -> 13a 7b                                           
   -0.022412  5a 4b -> 18a 7b                                           
   -0.016561  5a 4b -> 21a 7b                                           
    0.013511  5a 4b -> 8a 10b                                           
    0.015335  5a 4b -> 13a 10b                                          
    0.017440  5a 4b -> 8a 11b                                           
    0.014013  5a 4b -> 13a 11b                                          
   -0.015274  5a 4b -> 8a 14b                                           
    0.010464  5a 4b -> 18a 14b                                          
   -0.010791  5a 4b -> 13a 23b                                          
   -0.012778  5a 4b -> 16a 9b                                           
   -0.011402  5a 4b -> 16a 12b                                          
   -0.047030  6a 5b -> 9a 8b                                            
   -0.026656  6a 5b -> 12a 8b                                           
   -0.018876  6a 5b -> 19a 8b                                           
   -0.014328  6a 5b -> 22a 8b                                           
   -0.026656  6a 5b -> 9a 13b                                           
   -0.027470  6a 5b -> 12a 13b                                          
   -0.010484  6a 5b -> 22a 13b                                          
    0.018876  6a 5b -> 9a 18b                                           
    0.016503  6a 5b -> 19a 18b                                          
    0.014328  6a 5b -> 9a 21b                                           
    0.010484  6a 5b -> 12a 21b                                          
    0.011624  6a 5b -> 22a 21b                                          
   -0.022406  5a 6b -> 9a 8b                                            
   -0.013466  5a 6b -> 12a 8b                                           
   -0.013466  5a 6b -> 9a 13b                                           
   -0.022406  6a 5b -> 8a 9b                                            
   -0.013466  6a 5b -> 13a 9b                                           
   -0.013466  6a 5b -> 8a 12b                                           
   -0.047030  5a 6b -> 8a 9b                                            
   -0.026656  5a 6b -> 13a 9b                                           
    0.018876  5a 6b -> 18a 9b                                           
    0.014328  5a 6b -> 21a 9b                                           
   -0.026656  5a 6b -> 8a 12b                                           
   -0.027470  5a 6b -> 13a 12b                                          
    0.010484  5a 6b -> 21a 12b                                          
   -0.018876  5a 6b -> 8a 19b                                           
    0.016503  5a 6b -> 18a 19b                                          
   -0.014328  5a 6b -> 8a 22b                                           
   -0.010484  5a 6b -> 13a 22b                                          
    0.011624  5a 6b -> 21a 22b                                          
    0.010560  3a 4a -> 7a 17a                                           
    0.022164  4a 6a -> 7a 9a                                            
   -0.010332  4a 6a -> 9a 11a                                           
    0.012924  4a 6a -> 7a 12a                                           
    0.022164  4a 5a -> 7a 8a                                            
   -0.010332  4a 5a -> 8a 11a                                           
    0.012924  4a 5a -> 7a 13a                                           
   -0.024624  5a 6a -> 8a 9a                                            
   -0.013190  5a 6a -> 8a 12a                                           
    0.013190  5a 6a -> 9a 13a                                           
    0.018309  5a 6a -> 12a 13a                                          
    0.014427  5a 6a -> 15a 16a                                          
   -0.011352  5a 6a -> 9a 18a                                           
   -0.011352  5a 6a -> 8a 19a                                           
    0.011889  5a 6a -> 18a 19a                                          
   -0.014525  5a 6a -> 28a 29a                                          
   -0.026285  4a 4b 6b -> 7a 7b 9b                                      
   -0.016281  4a 4b 6b -> 7a 7b 12b                                     
   -0.026285  4a 4b 5b -> 7a 7b 8b                                      
   -0.016281  4a 4b 5b -> 7a 7b 13b                                     
   -0.026285  4a 6a 4b -> 7a 9a 7b                                      
   -0.016281  4a 6a 4b -> 7a 12a 7b                                     
   -0.026285  4a 5a 4b -> 7a 8a 7b                                      
   -0.016281  4a 5a 4b -> 7a 13a 7b                                     

 ************************ 2021-07-31 17:52:48 *************************
 Executing goldstone...

 Generation of CC equations in terms of H and T...
 Generation of antisymmetrized Goldstone diagrams...
 Number of diagrams in T^1 equations:    15
 Number of diagrams in T^2 equations:    38
 Number of diagrams in T^3 equations:    54
 Number of diagrams in T^4 equations:    76
 Number of diagrams in T^5 equations:     8
 Translation of diagrams to factorized equations...
 Optimizing intermediate calculation...
 Number of floating-point operations per iteration step:   9.7314E+12
 Probable CPU time per iteration step (hours):     97.31
 Required memory (Mbytes):   14329.2
 Number of intermediates:                                 118
 Number of intermediates to be stored:                     52
 Length of intermediate file (Mbytes):    1462.1

 ************************ 2021-07-31 17:52:53 *************************
 Executing xmrcc...

 **********************************************************************
 CC(4)(5) calculation 
 
 
 Allocation of****** Mbytes of memory...
 Number of spinorbitals:                   120
 Number of alpha electrons:                        4
 Number of beta electrons:                         4
 Spin multiplicity:                     1
 z-component of spin:  0.0
 Spatial symmetry:                      1
 Convergence criterion:  1.0E-05
 Construction of occupation graphs...
 Number of                     0 -fold excitations:                      1
 Number of                     1 -fold excitations:                    148
 Number of                     2 -fold excitations:                  17832
 Number of                     3 -fold excitations:                1089372
 Number of                     4 -fold excitations:               33912638
 Total number of configurations:               35019991
 Calculation of coupling coefficients...
 Length of intermediate file (Mbytes):     946.2
 
 ======================================================================
 
 Spin case  1   Alpha:  1   Beta:  4
 Number of excitations:               20562408
 Spin case  2   Alpha:  2   Beta:  3
 Number of excitations:              256132800
 Number of                     5 -fold excitations:              553390416
 
 Memory requirements /Mbyte/: 
               Minimal        Optimal
 Real*8:       1251.4609      1251.4609
 Integer:       119.8165
 Total:        1371.2774      1371.2774
 

 ************************ 2021-07-31 17:52:55 *************************
 Executing mrcc...

 **********************************************************************
 CCSDTQ(P) calculation                                                  
 
 
 OpenMP parallel version is running.
 Number of CPU cores:   1
 Allocation of 1251.5 Mbytes of memory...
 Number of spinorbitals: 120
 Number of alpha electrons:  4
 Number of beta  electrons:  4
 Spin multiplicity: 1
 z-component of spin:  0.0
 Spatial symmetry: 1
 Convergence criterion:  1.0E-05
 Construction of occupation graphs...
 Number of 0-fold excitations: 1
 Number of 1-fold excitations: 148
 Number of 2-fold excitations: 17832
 Number of 3-fold excitations: 1089372
 Number of 4-fold excitations: 33912638
 Total number of determinants: 35019991
 Calculation of coupling coefficients...
 Initial cluster amplitudes are read from unit 16.
 Length of intermediate file (Mbytes):     946.2
 Reading integral list from unit 55...
 Sorting integrals...
 Calculation of MP denominators...
 
 Starting CC iteration...
 ======================================================================
 Norm of residual vector:     0.16238442
 CPU time [min]:     8.499                   Wall time [min]:     8.516
 
 Iteration  1  CC energy:   -79.26402918  Energy decrease:   0.00000007
 ======================================================================
 Norm of residual vector:     0.07461458
 CPU time [min]:    17.683                   Wall time [min]:    17.706
 
 Iteration  2  CC energy:   -79.26344446  Energy decrease:   0.00058472
 ======================================================================
 Norm of residual vector:     0.03388850
 CPU time [min]:    26.907                   Wall time [min]:    26.944
 
 Iteration  3  CC energy:   -79.26594597  Energy decrease:   0.00250151
 ======================================================================
 Norm of residual vector:     0.01624939
 CPU time [min]:    36.172                   Wall time [min]:    36.218
 
 Iteration  4  CC energy:   -79.26684802  Energy decrease:   0.00090205
 ======================================================================
 Norm of residual vector:     0.00614715
 CPU time [min]:    45.463                   Wall time [min]:    45.517
 
 Iteration  5  CC energy:   -79.26710406  Energy decrease:   0.00025604
 ======================================================================
 Norm of residual vector:     0.00298096
 CPU time [min]:    54.816                   Wall time [min]:    54.879
 
 Iteration  6  CC energy:   -79.26721988  Energy decrease:   0.00011582
 ======================================================================
 Norm of residual vector:     0.00152606
 CPU time [min]:    64.205                   Wall time [min]:    64.272
 
 Iteration  7  CC energy:   -79.26720684  Energy decrease:   0.00001304
 ======================================================================
 Norm of residual vector:     0.00075792
 CPU time [min]:    73.617                   Wall time [min]:    73.689
 
 Iteration  8  CC energy:   -79.26719235  Energy decrease:   0.00001449
 ======================================================================
 Norm of residual vector:     0.00041957
 CPU time [min]:    83.073                   Wall time [min]:    83.168
 
 Iteration  9  CC energy:   -79.26719293  Energy decrease:   0.00000059
 ======================================================================
 Norm of residual vector:     0.00027195
 CPU time [min]:    92.579                   Wall time [min]:    92.703
 
 Iteration 10  CC energy:   -79.26719702  Energy decrease:   0.00000409
 ======================================================================
 Norm of residual vector:     0.00020018
 CPU time [min]:   102.107                   Wall time [min]:   102.236
 
 Iteration 11  CC energy:   -79.26720426  Energy decrease:   0.00000724
 ======================================================================
 Norm of residual vector:     0.00013790
 CPU time [min]:   111.670                   Wall time [min]:   111.802
 
 Iteration 12  CC energy:   -79.26720648  Energy decrease:   0.00000222
 ======================================================================
 Norm of residual vector:     0.00007441
 CPU time [min]:   121.280                   Wall time [min]:   121.417
 
 Iteration 13  CC energy:   -79.26720757  Energy decrease:   0.00000109
 ======================================================================
 Norm of residual vector:     0.00003667
 CPU time [min]:   130.932                   Wall time [min]:   131.073
 
 Iteration 14  CC energy:   -79.26720827  Energy decrease:   0.00000070
 ======================================================================
 Norm of residual vector:     0.00001750
 CPU time [min]:   140.631                   Wall time [min]:   140.776
 
 Iteration 15  CC energy:   -79.26720862  Energy decrease:   0.00000035
 ======================================================================
