 --invoking executable--
/home/nike/cfour/cfour_v2.00beta/bin/xjoda


   *************************************************************************
         <<<     CCCCCC     CCCCCC   |||     CCCCCC     CCCCCC   >>>
       <<<      CCC        CCC       |||    CCC        CCC         >>>
      <<<      CCC        CCC        |||   CCC        CCC            >>>
    <<<        CCC        CCC        |||   CCC        CCC              >>>
      <<<      CCC        CCC        |||   CCC        CCC            >>>
       <<<      CCC        CCC       |||    CCC        CCC         >>>
         <<<     CCCCCC     CCCCCC   |||     CCCCCC     CCCCCC   >>>
   *************************************************************************

     ****************************************************************
     * CFOUR Coupled-Cluster techniques for Computational Chemistry *
     ****************************************************************
 

   Department of Chemistry                Institut fuer Physikalische Chemie
   University of Texas at Austin          Universitaet Mainz
   Austin, TX  78712, USA                 D-55099 Mainz, Germany
 
                       Version 2.00beta
 
                     gra643                                            
                     Tue Jul 27 13:19:48 EDT 2021                      
                     integer*8 version is running
 
********************************************************************************
*                          Input from ZMAT file                                *
********************************************************************************
TITLE                                                                           
C  1.2247  0.0000 0.0000                                                        
C -1.2247  0.0000 0.0000                                                        
C  0.0000 -0.7286 0.0000                                                        
C  0.0000  0.7286 0.0000                                                        
                                                                                
*ACES2(CALC=CCSDT(Q)                                                            
#UNITS=BOHR                                                                     
UNITS=ANGSTROM                                                                  
#GEOM=2.2810272*10/5.29177210903_in2013JMSLeRoy                                 
COORD=CARTESIAN                                                                 
#COORD=INTERNAL                                                                 
PRINT=4                                                                         
JODA_PRINT=4                                                                    
INPUT_MRCC=OFF                                                                  
#CC_PROG=MRCC                                                                   
FROZEN_CORE=ON                                                                  
#DROPMO=1>4                                                                     
CONTRACTION=GENERAL                                                             
#CONTRACTION=SEGMENTED                                                          
RELATIVISTIC=OFF                                                                
#EXCITE=EOMEE                                                                   
#ESTATE_CONV=5                                                                  
#ESTATE_SYM=2/2/2/2/2/2/2/2                                                     
XFORM_TOL=18                                                                    
SAVE_INTS=ON                                                                    
SCF_EXPORDER=6                                                                  
SCF_EXPSTART=5                                                                  
#SCF_DAMPING=1000                                                               
SCF_EXTRAPOLATION=ON                                                            
SCF_CONV=11                                                                     
SCF_MAXCYC=9999                                                                 
CC_CONV=9                                                                       
CC_MAXCYC=999                                                                   
T3_EXTRAPOL=ON                                                                  
REFERENCE=UHF                                                                   
CHARGE=+1                                                                       
MULT=2                                                                          
ABCDTYPE=STANDARD                                                               
#OCCUPATION=3-2-2-0-1-0-0-0/3-1-1-0-1-0-0-0                                     
MEM=4                                                                           
MEM_UNIT=GB                                                                     
BASIS=SPECIAL)                                                                  
                                                                                
C:6-31G-EMSL                                                                    
C:6-31G-EMSL                                                                    
C:6-31G-EMSL                                                                    
C:6-31G-EMSL                                                                    
                                                                                
********************************************************************************
  @GTFLGS-W, Keyword #UNITS not known and is ignored.
  @GTFLGS-W, Keyword #GEOM not known and is ignored.
  @GTFLGS-W, Keyword #COORD not known and is ignored.
  @GTFLGS-W, Keyword #CC_PROG not known and is ignored.
  @GTFLGS-W, Keyword #DROPMO not known and is ignored.
  @GTFLGS-W, Keyword #CONTRACTION not known and is ignored.
  @GTFLGS-W, Keyword #EXCITE not known and is ignored.
  @GTFLGS-W, Keyword #ESTATE_CONV not known and is ignored.
  @GTFLGS-W, Keyword #ESTATE_SYM not known and is ignored.
  @GTFLGS-W, Keyword #SCF_DAMPING not known and is ignored.
  @GTFLGS-W, Keyword #OCCUPATION not known and is ignored.
    -------------------------------------------------------------------
                    CFOUR Control Parameters 
    -------------------------------------------------------------------
        External           Internal           Value            Units
          Name               Name
    -------------------------------------------------------------------
       ABCDTYPE             IABCDT         STANDARD     [  0]   ***   
       ANHARMONIC           IANHAR         OFF          [  0]   ***   
       ANH_ALGORIT          IANALG         STANDARD     [  0]   ***   
       ANH_DERIVAT          IANDER         SECOND       [  1]   ***   
       ANH_STEPSIZ          ICUBST             50000          x 10-6  
       ANH_SYMMETR          IANHSM         ABELIAN      [  0]   ***   
       AO_LADDERS           IAOLAD         SINGLEPASS   [  1]   ***   
       BASIS                IBASIS         SPECIAL      [  0]   ***   
       BREIT                IBREIT         OFF          [  0]   ***   
       BRUCK_CONV           IBRTOL          10D-  4             ***   
       BRUECKNER            IBRKNR             OFF      [  0]   ***   
       BUFFERSIZE           IBUFFS            600               ***   
       CACHE_RECS           ICHREC             10               ***   
       CALCLEVEL            ICLLVL           CCSDT(Q)   [ 54]   ***   
       CCORBOPT             ICCORB             OFF      [  0] x 0.01  
       CC_CONV              ICCCNV          10D-  9             ***   
       CC_EXPORDER          ICCEOR              5               ***   
       CC_EXTRAPOL          ICCEXT             DIIS     [  1]   ***   
       CC_MAXCYC            ICCCYC            999              cycles 
       CC_PROGRAM           ICCPRO         VCC          [  0]   ***   
       CHARGE               ICHRGE              1               ***   
       CHOLESKY             ICHOLE         OFF          [  0]   ***   
       CIS_CONV             ICISTL              5               ***   
       COMM_SIZE            IPSIZE            ***               ***   
       CONSTANT             ICONST         OLD          [  1]   ***   
       CONTINUUM            ICONTU         NONE         [  0]   ***   
       CONTRACTION          ICNTYP          GENERAL     [  1]   ***   
       COORDINATES          ICOORD         CARTESIAN    [  1]   ***   
       CPHF_CONVER          ICPHFT          10D- 16             ***   
       CPHF_MAXCYC          ICPHFC             64              cycles 
       CUBIC                ICUBIC         OFF          [  0]   ***   
       CURVILINEAR          ICURVY            OFF       [  0]   ***   
       DBOC                 IDBOC          OFF          [  0]   ***   
       DCT                  IDCT           OFF          [  0]   ***   
       DERIV_LEV            IDRLVL            ZERO      [  0]   ***   
       DIAG_MRCC            IEOMST          10D-  0             ***   
       DIFF_TYPE            IDIFTY         RELAXED      [  0]   ***   
       DIRECT               IDIRCT         OFF          [  0]   ***   
       DROPMO               IDRPMO      NONE         
       ECP                  IECP           OFF          [  0]   ***   
       EIGENVECTOR          IVEC                1               ***   
       EL_ANHARM            IELANH         OFF          [  0]   ***   
       EOMFOLLOW            IEOMSR         ENERGY       [  0]   ***   
       EOM_MRCC             IMRCCE         NEW          [  1]   ***   
       EOM_NONIT            EOMNON         OFF          [  0]   ***   
       EOM_NSING            IEOMSI          10D-  0             ***   
       EOM_NSTATES          IMRCCD         DAVIDSON     [  0]   ***   
       EOM_NTRIP            IEOMTR          10D-  0             ***   
       EOM_ORDER            IEXORD         ENERGY       [  0]   ***   
       ESTATE_CONV          IEXTOL          10D-  5             ***   
       ESTATE_DIAG          IEXDIG         ITERATIVE    [  0]   ***   
       ESTATE_LOCK          IESLOC         ON           [  1]   ***   
       ESTATE_MAXC          IEXMXC             20               ***   
       ESTATE_PROP          IEXPRP         OFF          [  0]   ***   
       EVAL_HESS            IRECAL              0            # of cyc.
       EXCITATION           IEXCIT              0               ***   
       EXCITE               IEXCIT         NONE         [  0]   ***   
       FCGRADNEW            IFCGNW         OFF          [  0]   ***   
       FC_FIELD             IFINFC              0             x 10-6  
       FD_CALTYPE           IFDCAL         GRADONLY     [  0]   ***   
       FD_PROJECT           IFDPRJ         OFF          [  1]   ***   
       FD_STEPSIZE          IDISFD              0            10-4 bohr
       FD_USEGROUP          IFDGRP         FULL         [  0]   ***   
       FILE_RECSIZ          IFLREC              4096           words  
       FINITE_PERT          IFIPER              0             x 10-6  
       FIXGEOM              IFIXGM         OFF          [  0]   ***   
       FOCK                 IFOCK          AO           [  1]   ***   
       FREQ_ALGORI          IVIALG         STANDARD     [  0]   ***   
       FROZEN_CORE          IFROCO         ON           [  1]   ***   
       FROZEN_VIRT          IFROVI         OFF          [  0]   ***   
       GAMMA_ABCD           IGABCD         STORE        [  0]   ***   
       GAMMA_ABCI           IGABCI         STORE        [  0]   ***   
       GENBAS_1             IGNBS1              0               ***   
       GENBAS_2             IGNBS2              0               ***   
       GENBAS_3             IGNBS3              0               ***   
       GENBAS_4             IGNBS4              0               ***   
       GEO_CONV             ICONTL              5              H/bohr 
       GEO_MAXCYC           IOPTCY             50               ***   
       GEO_MAXSTEP          IMXSTP            300            millibohr
       GEO_METHOD           INR            SINGLE_POINT [  5]   ***   
       GIAO                 IGIAO          OFF          [  1]   ***   
       GIMIC                IGIMIC         OFF          [  0]   ***   
       GRID                 IGRID          OFF          [  0]   ***   
       GRID_ALGO            IGALGO         SERIAL       [  0]   ***   
       GUESS                IGUESS            MOREAD    [  0]   ***   
       HBAR                 IHBAR              OFF      [  0]   ***   
       HESS_TYPE            IHESTP         SCF          [  0]   ***   
       HF2_FILE             IHF2Fl         USE          [  1]   ***   
       HFSTABILITY          ISTABL         OFF          [  0]   ***   
       INCORE               INCORE             OFF      [  0]   ***   
       INPUT_MRCC           IMRCC          OFF          [  0]   ***   
       INTEGRALS            INTTYP             VMOL     [  1]   ***   
       JODA_PRINT           IJPRNT              4               ***   
       LINDEP_TOL           ILINDP              8               ***   
       LINEQ_CONV           IZTACN          10D-  7           cycles  
       LINEQ_EXPOR          ILMAXD              5               ***   
       LINEQ_MAXCY          ILMAXC             50               ***   
       LINEQ_TYPE           ILTYPE         DIIS         [  1]   ***   
       LOCK_ORBOCC          ILOCOC             OFF      [  0]   ***   
       MEMORY_SIZE          IMEMSZ         500000000           words  
       MEM_UNIT             IMEMU          GB           [  3]   ***   
       MRCC                 IMRCCC         OFF          [  0]   ***   
       MULTIPLICTY          IMULTP              2               ***   
       NEGEVAL              IDIE             ABORT      [  0]   ***   
       NEWNORM              INEWNO         OFF          [  0]   ***   
       NON-HF               INONHF             OFF      [  0]   ***   
       NTOP_TAMP            ITOPT2             15               ***   
       NUC_MODEL            INUCMO         POINT        [  0]   ***   
       OCCUPATION           IOCCU   ESTIMATED BY SCF 
       OPEN-SHELL           IOPEN          SPIN-ORBITAL [  0]   ***   
       ORBITALS             IORBTP           STANDARD   [  0]   ***   
       PARALLEL             IPARAL         ON           [  1]   ***   
       PARA_INT             IPINTS         ON           [  1]   ***   
       PARA_PRINT           IPPRIN              0               ***   
       PERT_ORB             IPTORB         STANDARD     [  0]   ***   
       POINTS               IGRDFD              0               ***   
       PRINT                IPRNT               4               ***   
       PROPS                IPROPS             OFF      [  0]   ***   
       PROP_INTEGR          IINTYP         INTERNAL     [  0]   ***   
       PSI                  IPSI           OFF          [  0]   ***   
       QUARTIC              IQUART         OFF          [  0]   ***   
       RAMAN_INT            IRAMIN         OFF          [  0]   ***   
       RAMAN_ORB            IRAMRE         UNRELAXED    [  0]   ***   
       RDO                  IRDOFM             OFF      [  0]   ***   
       REFERENCE            IREFNC             UHF      [  1]   ***   
       RELATIVIST           IRELAT         OFF          [  0]   ***   
       RELAX_DENS           IRDENS             OFF      [  0]   ***   
       RESET_FLAGS          IRESET             OFF      [  0]   ***   
       RESTART_CC           ICCRES         OFF          [  0]   ***   
       ROT_EVEC             ROTVEC              0               ***   
       SAVE_INTS            ISVINT              ON      [  1]   ***   
       SCALE_ON             ISTCRT              0               ***   
       SCF_CONV             ISCFCV          10D- 11             ***   
       SCF_DAMPING          IDAMP               0             x 10-3  
       SCF_EXPORDE          IRPPOR              6               ***   
       SCF_EXPSTAR          IRPPLS              5               ***   
       SCF_EXTRAPO          IRPP                ON      [  1]   ***   
       SCF_MAXCYC           ISCFCY            ***              cycles 
       SCF_NOSTOP           ISCFST         OFF          [  0]   ***   
       SCF_PRINT            ISCFPR              0               ***   
       SD_FIELD             IFINSD              0             x 10-6  
       SEQUENCE             ISEQUE         OFF          [  0]   ***   
       SOPERT               IPERSO         OFF          [  0]   ***   
       SPHERICAL            IDFGHI             ON       [  1]   ***   
       SPINORBIT            ISOCAL         OFF          [  0]   ***   
       SPINROTATIO          ISRCON         OFF          [  0]   ***   
       SPIN_FLIP            ISPFLP         OFF          [  0]   ***   
       SPIN_ORBIT           ISPORB         OFF          [  0]   ***   
       SPIN_SCAL            ISCSMP         OFF          [  0]   ***   
       SUBGROUP             ISUBGP         DEFAULT      [  0]   ***   
       SUBGRPAXIS           ISBXYZ         X            [  0]   ***   
       SYMMETRY             ISYM             ON         [  0]   ***   
       SYM_CHECK            ISYMCK         OVERRIDE     [  1]   ***   
       T3_EXTRAPOL          IT3EXT         ON           [  1]   ***   
       TAMP_SUM             IEVERY              5               ***   
       TESTSUITE            ITESTS         OFF          [  0]   ***   
       THERMOCH             ITHERM         OFF          [  0]   ***   
       TOL_CHOLESK          ITOLCH          10D-  4             ***   
       TRANGRAD             IRESRM         OFF          [  0]   ***   
       TRANS_INV            ITRAIN         USE          [  0]   ***   
       TREAT_PERT           ITREAT         SIMULTANEOUS [  0]   ***   
       UIJ_THRESHO          IUIJTH              1               ***   
       UNITS                IUNITS         ANGSTROM     [  0]   ***   
       UNOS                 IUNOS          OFF          [  0]   ***   
       UPDATE_HESS          IHUPDT         ON           [  1]   ***   
       VIBPHASE             ISETPH         STANDARD     [  0]   ***   
       VIBRATION            IVIB              NO        [  0]   ***   
       VIB_ALGORIT          IGEALG         STANDARD     [  0]   ***   
       VNATORB              IVNORB         OFF          [  0]   ***   
       VTRAN                IVTRAN         FULL/PARTIAL [  0]   ***   
       XFIELD               IXEFLD              0             x 10-6  
       XFORM_TOL            IXFTOL          10D- 18             ***   
       YFIELD               IYEFLD              0             x 10-6  
       ZFIELD               IZEFLD              0             x 10-6  
    -------------------------------------------------------------------
  @GETXYZ-I,     4 atoms read from ZMAT.
  1  C          6    12.00000
  2  C          6    12.00000
  3  C          6    12.00000
  4  C          6    12.00000
  1  C          6    12.00000
  2  C          6    12.00000
  3  C          6    12.00000
  4  C          6    12.00000
   12.0000000000
   12.0000000000
   12.0000000000
   12.0000000000
 After translation to center of mass coordinates 
        2.314348069862    0.000000000000    0.000000000000
       -2.314348069862    0.000000000000    0.000000000000
        0.000000000000   -1.376854742958    0.000000000000
        0.000000000000    1.376854742958    0.000000000000
  Inertia tensor (amu*bohr**2)
   45.49750    0.00000    0.00000
    0.00000  128.54897    0.00000
    0.00000    0.00000  174.04646
    Inertia tensor:
       45.497495596973    0.000000000000    0.000000000000
        0.000000000000  128.548967723339    0.000000000000
        0.000000000000    0.000000000000  174.046463320312
    Principal axis orientation for molecular system: 
        2.314348069862    0.000000000000    0.000000000000
       -2.314348069862    0.000000000000    0.000000000000
        0.000000000000   -1.376854742958    0.000000000000
        0.000000000000    1.376854742958    0.000000000000
    Diagonalized inertia tensor:
       45.497495596973    0.000000000000    0.000000000000
        0.000000000000  128.548967723339    0.000000000000
        0.000000000000    0.000000000000  174.046463320312
    Eigenvectors of inertia tensor: 
        1.000000000000    0.000000000000    0.000000000000
        0.000000000000    1.000000000000    0.000000000000
        0.000000000000    0.000000000000    1.000000000000
 factor:   60.1997200000000     
   Rotational constants (in cm-1): 
          0.3458830410             0.4683018547             1.3231435975
   Rotational constants (in MHz): 
      10369.3141554309         14039.3383764398         39666.8526944171
  @SYMMETRY-I, Handedness of inertial frame: 1.00000
  @SYMMETRY-I, The symmetry group is 1-fold degenerate.
  @SYMMETRY-I, The molecule belongs to an Abelian group.
   Principal axis orientation for molecule:
        2.314348069862    0.000000000000    0.000000000000
       -2.314348069862    0.000000000000    0.000000000000
        0.000000000000   -1.376854742958    0.000000000000
        0.000000000000    1.376854742958    0.000000000000
   Reflection in plane  3 is a valid symmetry operation.
   Rotation about  3 is a valid symmetry operation 
   Reflection in plane  2 is a valid symmetry operation.
   Rotation about  2 is a valid symmetry operation 
   Reflection in plane  1 is a valid symmetry operation.
   Rotation about  1 is a valid symmetry operation 
   The molecule possesses an inversion center. 
  Symmetry bits:    7   7   1
********************************************************************************
   The full molecular point group is D2h .
   The largest Abelian subgroup of the full molecular point group is D2h .
   The computational point group is D2h .
********************************************************************************
 ----------------------------------------------------------------
 Z-matrix   Atomic            Coordinates (in bohr)
  Symbol    Number           X              Y              Z
 ----------------------------------------------------------------
     C         6         2.31434807     0.00000000     0.00000000
     C         6        -2.31434807     0.00000000     0.00000000
     C         6         0.00000000    -1.37685474     0.00000000
     C         6         0.00000000     1.37685474     0.00000000
 ----------------------------------------------------------------
   Interatomic distance matrix (Angstroms) 
 
                 C             C             C             C    
                [ 1]        [ 2]        [ 3]        [ 4]
  C    [ 1]     0.00000
  C    [ 2]     2.44940     0.00000
  C    [ 3]     1.42504     1.42504     0.00000
  C    [ 4]     1.42504     1.42504     1.45720     0.00000
  Inertia tensor (amu*bohr**2)
   45.49750    0.00000    0.00000
    0.00000  128.54897    0.00000
    0.00000    0.00000  174.04646
   Rotational constants (in cm-1): 
          1.3231435975             0.4683018547             0.3458830410
   Rotational constants (in MHz): 
      39666.8526944171         14039.3383764398         10369.3141554309
  @GTFLGS-W, Keyword #UNITS not known and is ignored.
  @GTFLGS-W, Keyword #GEOM not known and is ignored.
  @GTFLGS-W, Keyword #COORD not known and is ignored.
  @GTFLGS-W, Keyword #CC_PROG not known and is ignored.
  @GTFLGS-W, Keyword #DROPMO not known and is ignored.
  @GTFLGS-W, Keyword #CONTRACTION not known and is ignored.
  @GTFLGS-W, Keyword #EXCITE not known and is ignored.
  @GTFLGS-W, Keyword #ESTATE_CONV not known and is ignored.
  @GTFLGS-W, Keyword #ESTATE_SYM not known and is ignored.
  @GTFLGS-W, Keyword #SCF_DAMPING not known and is ignored.
  @GTFLGS-W, Keyword #OCCUPATION not known and is ignored.
  There are   4 frozen-core orbitals.
  There are   4 frozen-core orbitals.
  There are   36 basis functions.
 @GEOPT-W, Archive file not created for single-point calculation.
  @CHECKOUT-I, Total execution time (CPU/WALL):        0.32/       0.60 seconds.
--executable xjoda finished with status     0 in        0.76 seconds (walltime).
 --invoking executable--
/home/nike/cfour/cfour_v2.00beta/bin/xvmol
 Serial version of molecule started
********************************************************************************
                    Input from MOL file
********************************************************************************
INTGRL        1    0    1    0    0    0    0    0    0                         
         *** CFOUR Program System (Release V0.1) ***                            
TITLE                                                                           
    2    3 X  Y   Z   0.10E-08              0    0                              
   9999.00      3.00                                                            
          6.00000000    1    2    1    1                                        
C #1   2.314348069861678   0.000000000000000   0.000000000000000                
   10    3                                                                      
   3047.52488000000       1.834737132000000E-003  0.000000000000000E+000        
  0.000000000000000E+000                                                        
   457.369518000000       1.403732281000000E-002  0.000000000000000E+000        
  0.000000000000000E+000                                                        
   103.948685000000       6.884262226000000E-002  0.000000000000000E+000        
  0.000000000000000E+000                                                        
   29.2101553000000       0.232184443200000       0.000000000000000E+000        
  0.000000000000000E+000                                                        
   9.28666296000000       0.467941348400000       0.000000000000000E+000        
  0.000000000000000E+000                                                        
   3.16392696000000       0.362311985300000       0.000000000000000E+000        
  0.000000000000000E+000                                                        
   7.86827235000000       0.000000000000000E+000 -0.119332419800000             
  0.000000000000000E+000                                                        
   1.88128854000000       0.000000000000000E+000 -0.160854151700000             
  0.000000000000000E+000                                                        
  0.544249258000000       0.000000000000000E+000   1.14345643800000             
  0.000000000000000E+000                                                        
  0.168714478200000       0.000000000000000E+000  0.000000000000000E+000        
   1.00000000000000                                                             
    4    2                                                                      
   7.86827235000000       6.899906659000000E-002  0.000000000000000E+000        
   1.88128854000000       0.316423961000000       0.000000000000000E+000        
  0.544249258000000       0.744308290900000       0.000000000000000E+000        
  0.168714478200000       0.000000000000000E+000   1.00000000000000             
          6.00000000    1    2    1    1                                        
C #2   0.000000000000000  -1.376854742958454   0.000000000000000                
   10    3                                                                      
   3047.52488000000       1.834737132000000E-003  0.000000000000000E+000        
  0.000000000000000E+000                                                        
   457.369518000000       1.403732281000000E-002  0.000000000000000E+000        
  0.000000000000000E+000                                                        
   103.948685000000       6.884262226000000E-002  0.000000000000000E+000        
  0.000000000000000E+000                                                        
   29.2101553000000       0.232184443200000       0.000000000000000E+000        
  0.000000000000000E+000                                                        
   9.28666296000000       0.467941348400000       0.000000000000000E+000        
  0.000000000000000E+000                                                        
   3.16392696000000       0.362311985300000       0.000000000000000E+000        
  0.000000000000000E+000                                                        
   7.86827235000000       0.000000000000000E+000 -0.119332419800000             
  0.000000000000000E+000                                                        
   1.88128854000000       0.000000000000000E+000 -0.160854151700000             
  0.000000000000000E+000                                                        
  0.544249258000000       0.000000000000000E+000   1.14345643800000             
  0.000000000000000E+000                                                        
  0.168714478200000       0.000000000000000E+000  0.000000000000000E+000        
   1.00000000000000                                                             
    4    2                                                                      
   7.86827235000000       6.899906659000000E-002  0.000000000000000E+000        
   1.88128854000000       0.316423961000000       0.000000000000000E+000        
  0.544249258000000       0.744308290900000       0.000000000000000E+000        
  0.168714478200000       0.000000000000000E+000   1.00000000000000             
FINISH                                                                          
 
********************************************************************************
 One- and two-electron integrals over symmetry-adapted AOs are calculated.

  Spherical harmonics are used.
  
   2 types of atoms
   3 symmetry operations

   Reflection in the YZ-plane
   Reflection in the XZ-plane
   Reflection in the XY-plane
  
  Integrals less than  0.10E-13 are neglected.

  Atomic type number  1 :
  -----------------------

    Nuclear charge:                        6
    number of symmetry independent atoms:  1
    highest orbital type:                  p

      1 groups of CGTOs of s type
      1 groups of CGTOs of p type

    nuclear coordinates (in a.u.) are :

    C #1        2.314348069861678        0.000000000000000        0.000000000000000
  
  Atomic type number  2 :
  -----------------------

    Nuclear charge:                        6
    number of symmetry independent atoms:  1
    highest orbital type:                  p

      1 groups of CGTOs of s type
      1 groups of CGTOs of p type

    nuclear coordinates (in a.u.) are :

    C #2        0.000000000000000       -1.376854742958454        0.000000000000000
  
   Internuclear distances (A) :

     for atom C #1 (coordinates :   2.31435   0.00000   0.00000)

     C #1   2     distance is  2.449
     C #2   1     distance is  1.425

     for atom C #2 (coordinates :   0.00000  -1.37685   0.00000)

     C #2   3     distance is  1.457

   Group multiplication table :

         1   2   3   4   5   6   7   8
         2   1   4   3   6   5   8   7
         3   4   1   2   7   8   5   6
         4   3   2   1   8   7   6   5
         5   6   7   8   1   2   3   4
         6   5   8   7   2   1   4   3
         7   8   5   6   3   4   1   2
         8   7   6   5   4   3   2   1

   Gaussian basis information :

   atom                 exponent      coefficients

 C #1  1    S   
+                 1    3047.524880   0.0018347   0.0000000   0.0000000
                  2     457.369518   0.0140373   0.0000000   0.0000000
                  3     103.948685   0.0688426   0.0000000   0.0000000
                  4      29.210155   0.2321844   0.0000000   0.0000000
                  5       9.286663   0.4679413   0.0000000   0.0000000
                  6       3.163927   0.3623120   0.0000000   0.0000000
                  7       7.868272   0.0000000  -0.1193324   0.0000000
                  8       1.881289   0.0000000  -0.1608542   0.0000000
                  9       0.544249   0.0000000   1.1434564   0.0000000
                 10       0.168714   0.0000000   0.0000000   1.0000000

 C #1  2    S   
+                11    3047.524880   0.0018347   0.0000000   0.0000000
                 12     457.369518   0.0140373   0.0000000   0.0000000
                 13     103.948685   0.0688426   0.0000000   0.0000000
                 14      29.210155   0.2321844   0.0000000   0.0000000
                 15       9.286663   0.4679413   0.0000000   0.0000000
                 16       3.163927   0.3623120   0.0000000   0.0000000
                 17       7.868272   0.0000000  -0.1193324   0.0000000
                 18       1.881289   0.0000000  -0.1608542   0.0000000
                 19       0.544249   0.0000000   1.1434564   0.0000000
                 20       0.168714   0.0000000   0.0000000   1.0000000

 C #1  1    X   
+                21       7.868272   0.0689991   0.0000000
                 22       1.881289   0.3164240   0.0000000
                 23       0.544249   0.7443083   0.0000000
                 24       0.168714   0.0000000   1.0000000

 C #1  2    X   
+                25       7.868272   0.0689991   0.0000000
                 26       1.881289   0.3164240   0.0000000
                 27       0.544249   0.7443083   0.0000000
                 28       0.168714   0.0000000   1.0000000

 C #1  1    Y   
+                29       7.868272   0.0689991   0.0000000
                 30       1.881289   0.3164240   0.0000000
                 31       0.544249   0.7443083   0.0000000
                 32       0.168714   0.0000000   1.0000000

 C #1  2    Y   
+                33       7.868272   0.0689991   0.0000000
                 34       1.881289   0.3164240   0.0000000
                 35       0.544249   0.7443083   0.0000000
                 36       0.168714   0.0000000   1.0000000

 C #1  1    Z   
+                37       7.868272   0.0689991   0.0000000
                 38       1.881289   0.3164240   0.0000000
                 39       0.544249   0.7443083   0.0000000
                 40       0.168714   0.0000000   1.0000000

 C #1  2    Z   
+                41       7.868272   0.0689991   0.0000000
                 42       1.881289   0.3164240   0.0000000
                 43       0.544249   0.7443083   0.0000000
                 44       0.168714   0.0000000   1.0000000

 C #2  1    S   
+                45    3047.524880   0.0018347   0.0000000   0.0000000
                 46     457.369518   0.0140373   0.0000000   0.0000000
                 47     103.948685   0.0688426   0.0000000   0.0000000
                 48      29.210155   0.2321844   0.0000000   0.0000000
                 49       9.286663   0.4679413   0.0000000   0.0000000
                 50       3.163927   0.3623120   0.0000000   0.0000000
                 51       7.868272   0.0000000  -0.1193324   0.0000000
                 52       1.881289   0.0000000  -0.1608542   0.0000000
                 53       0.544249   0.0000000   1.1434564   0.0000000
                 54       0.168714   0.0000000   0.0000000   1.0000000

 C #2  3    S   
+                55    3047.524880   0.0018347   0.0000000   0.0000000
                 56     457.369518   0.0140373   0.0000000   0.0000000
                 57     103.948685   0.0688426   0.0000000   0.0000000
                 58      29.210155   0.2321844   0.0000000   0.0000000
                 59       9.286663   0.4679413   0.0000000   0.0000000
                 60       3.163927   0.3623120   0.0000000   0.0000000
                 61       7.868272   0.0000000  -0.1193324   0.0000000
                 62       1.881289   0.0000000  -0.1608542   0.0000000
                 63       0.544249   0.0000000   1.1434564   0.0000000
                 64       0.168714   0.0000000   0.0000000   1.0000000

 C #2  1    X   
+                65       7.868272   0.0689991   0.0000000
                 66       1.881289   0.3164240   0.0000000
                 67       0.544249   0.7443083   0.0000000
                 68       0.168714   0.0000000   1.0000000

 C #2  3    X   
+                69       7.868272   0.0689991   0.0000000
                 70       1.881289   0.3164240   0.0000000
                 71       0.544249   0.7443083   0.0000000
                 72       0.168714   0.0000000   1.0000000

 C #2  1    Y   
+                73       7.868272   0.0689991   0.0000000
                 74       1.881289   0.3164240   0.0000000
                 75       0.544249   0.7443083   0.0000000
                 76       0.168714   0.0000000   1.0000000

 C #2  3    Y   
+                77       7.868272   0.0689991   0.0000000
                 78       1.881289   0.3164240   0.0000000
                 79       0.544249   0.7443083   0.0000000
                 80       0.168714   0.0000000   1.0000000

 C #2  1    Z   
+                81       7.868272   0.0689991   0.0000000
                 82       1.881289   0.3164240   0.0000000
                 83       0.544249   0.7443083   0.0000000
                 84       0.168714   0.0000000   1.0000000

 C #2  3    Z   
+                85       7.868272   0.0689991   0.0000000
                 86       1.881289   0.3164240   0.0000000
                 87       0.544249   0.7443083   0.0000000
                 88       0.168714   0.0000000   1.0000000
 36 36
  1  2  3  4  5  6  7  8  9 10 11 12 13 14 15 16 17 18 19 20 21 22 23 24 25
 26 27 28 29 30 31 32 33 34 35 36
1

             SYMMETRY TRANSFORMATION INFO
             36 SYMMETRY ADAPTED BASIS FUNCTIONS 


          irreducible representation number 1

    1    1  C #1     1s     2   1   1.0   2   1.0
    2    2  C #1     1s     2   3   1.0   4   1.0
    3    3  C #1     1s     2   5   1.0   6   1.0
    4    4  C #1     2px    2   7   1.0   8  -1.0
    5    5  C #1     2px    2   9   1.0  10  -1.0
    6    6  C #2     1s     2  19   1.0  20   1.0
    7    7  C #2     1s     2  21   1.0  22   1.0
    8    8  C #2     1s     2  23   1.0  24   1.0
    9    9  C #2     2py    2  29   1.0  30  -1.0
   10   10  C #2     2py    2  31   1.0  32  -1.0


          irreducible representation number 2

   11    1  C #1     1s     2   1   1.0   2  -1.0
   12    2  C #1     1s     2   3   1.0   4  -1.0
   13    3  C #1     1s     2   5   1.0   6  -1.0
   14    4  C #1     2px    2   7   1.0   8   1.0
   15    5  C #1     2px    2   9   1.0  10   1.0
   16    6  C #2     2px    2  25   1.0  26   1.0
   17    7  C #2     2px    2  27   1.0  28   1.0


          irreducible representation number 3

   18    1  C #1     2py    2  11   1.0  12   1.0
   19    2  C #1     2py    2  13   1.0  14   1.0
   20    3  C #2     1s     2  19   1.0  20  -1.0
   21    4  C #2     1s     2  21   1.0  22  -1.0
   22    5  C #2     1s     2  23   1.0  24  -1.0
   23    6  C #2     2py    2  29   1.0  30   1.0
   24    7  C #2     2py    2  31   1.0  32   1.0


          irreducible representation number 4

   25    1  C #1     2py    2  11   1.0  12  -1.0
   26    2  C #1     2py    2  13   1.0  14  -1.0
   27    3  C #2     2px    2  25   1.0  26  -1.0
   28    4  C #2     2px    2  27   1.0  28  -1.0


          irreducible representation number 5

   29    1  C #1     2pz    2  15   1.0  16   1.0
   30    2  C #1     2pz    2  17   1.0  18   1.0
   31    3  C #2     2pz    2  33   1.0  34   1.0
   32    4  C #2     2pz    2  35   1.0  36   1.0


          irreducible representation number 6

   33    1  C #1     2pz    2  15   1.0  16  -1.0
   34    2  C #1     2pz    2  17   1.0  18  -1.0


          irreducible representation number 7

   35    1  C #2     2pz    2  33   1.0  34  -1.0
   36    2  C #2     2pz    2  35   1.0  36  -1.0
  Nuclear repulsion energy :   74.3239611126 a.u.
  required memory for a1 array                5020656  words 
  required memory for a2 array                2070133  words 
 @GETMEM-I,  Allocated      69 MB of main memory.
  @MOLECU-I, One electron integrals (CPU/WALL):        0.02/       0.02 seconds.
  @TWOEL-I,       2474 integrals of symmetry type  I I I I
  @TWOEL-I,      10589 integrals of symmetry type  I J I J
  @TWOEL-I,       6979 integrals of symmetry type  I I J J
  @TWOEL-I,      11652 integrals of symmetry type  I J K L
  @TWOEL-I, Total number of 2-e integrals      31694.
  @MOLECU-I, Two electron integrals (CPU/WALL):        0.05/       0.06 seconds.
  @CHECKOUT-I, Total execution time (CPU/WALL):        0.09/       0.10 seconds.
--executable xvmol finished with status     0 in        0.17 seconds (walltime).
 --invoking executable--
/home/nike/cfour/cfour_v2.00beta/bin/xvmol2ja
 @GETMEM-I,  Allocated    3814 MB of main memory.
  @CHECKOUT-I, Total execution time (CPU/WALL):        0.02/       0.02 seconds.
--executable xvmol2ja finished with status     0 in        0.09 seconds (walltime).
 --invoking executable--
/home/nike/cfour/cfour_v2.00beta/bin/xvscf
  There are   36 functions in the AO basis.

  There are 8 irreducible representations.

       Irrep        # of functions
         1                 10
         2                  7
         3                  7
         4                  4
         5                  4
         6                  2
         7                  2
         8                  0


  Parameters for SCF calculation: 
        SCF reference function:  UHF  
  Maximum number of iterations: 9999
     Full symmetry point group: D2h 
     Computational point group: D2h 
        Initial density matrix: CORE                   
     SCF convergence tolerance: 10**(-11)
  DIIS convergence acceleration:  ON
          Latest start for DIIS:   5
                     DIIS order:   6

  Memory information:      84390 words required.
  Fock matrices are constructed from AO integral file.
 @GETMEM-I,  Allocated       0 MB of main memory.
  Initialization and symmetry analysis required      0.004 seconds.

  @INITGES-I, Occupancies from core Hamiltonian:

          Alpha population by irrep:   4    3    2    1    1    0    1    0
           Beta population by irrep:   4    2    2    1    1    0    1    0


 total no. of electrons in initial guess :  0.000000000000000E+000
 total no. of electrons in initial guess :  0.000000000000000E+000
  --------------------------------------------------------------------
  Iteration         Total Energy            Largest Density Difference
  --------------------------------------------------------------------
       0            74.323961112554130              0.0000000000D+00
   current occupation vector 
     4  3  2  1  1  0  1  0
     4  2  2  1  1  0  1  0
  processed                   2474  ao basis integrals from 
                     5  buffers.
  processed                   6979  ao basis integrals from 
                    12  buffers.
  processed                  10589  ao basis integrals from 
                    18  buffers.
       1          -139.833365715053446              0.7674187339D+00
   current occupation vector 
     4  3  2  1  1  0  1  0
     4  2  2  1  1  0  1  0
  processed                   2474  ao basis integrals from 
                     5  buffers.
  processed                   6979  ao basis integrals from 
                    12  buffers.
  processed                  10589  ao basis integrals from 
                    18  buffers.
       2          -145.075864602749846              0.7606513714D+00
   current occupation vector 
     4  3  2  1  1  1  0  0
     4  3  2  1  1  0  0  0
  processed                   2474  ao basis integrals from 
                     5  buffers.
  processed                   6979  ao basis integrals from 
                    12  buffers.
  processed                  10589  ao basis integrals from 
                    18  buffers.
       3          -144.636581414325633              0.7039623818D+00
   current occupation vector 
     4  2  3  1  1  0  1  0
     4  2  2  1  1  0  1  0
  processed                   2474  ao basis integrals from 
                     5  buffers.
  processed                   6979  ao basis integrals from 
                    12  buffers.
  processed                  10589  ao basis integrals from 
                    18  buffers.
       4          -146.090518965515344              0.7041685729D+00
   current occupation vector 
     4  3  2  1  1  1  0  0
     4  3  2  1  1  0  0  0
 
 sum over diagonal and offdiagdiagonal of C(T)*S*C for irrep
                     1
 -7.993605777301127E-014  4.406746015685770E-014
 reorthoganalization of MOs is carried out
 sum over diagonal and offdiagdiagonal of C(T)*S*C for irrep
                     1
  5.773159728050814E-015  2.139556827352031E-015
 
 sum over diagonal and offdiagdiagonal of C(T)*S*C for irrep
                     2
 -7.160938508832260E-014  5.600317587182550E-014
 reorthoganalization of MOs is carried out
 sum over diagonal and offdiagdiagonal of C(T)*S*C for irrep
                     2
 -2.220446049250313E-016 -2.331561218646796E-015
 
 sum over diagonal and offdiagdiagonal of C(T)*S*C for irrep
                     3
  2.808864252301646E-014  5.291793400317841E-015
 reorthoganalization of MOs is carried out
 sum over diagonal and offdiagdiagonal of C(T)*S*C for irrep
                     3
 -3.885780586188048E-015  3.727375881472410E-015
 
 sum over diagonal and offdiagdiagonal of C(T)*S*C for irrep
                     4
 -8.881784197001252E-016 -2.775177693754051E-015
 reorthoganalization of MOs is carried out
 sum over diagonal and offdiagdiagonal of C(T)*S*C for irrep
                     4
 -1.221245327087672E-015  1.235227030537968E-015
 
 sum over diagonal and offdiagdiagonal of C(T)*S*C for irrep
                     5
  1.731947918415244E-014 -4.730756916998806E-015
 reorthoganalization of MOs is carried out
 sum over diagonal and offdiagdiagonal of C(T)*S*C for irrep
                     5
 -7.771561172376096E-016 -2.006148544232432E-016
 
 sum over diagonal and offdiagdiagonal of C(T)*S*C for irrep
                     6
 -2.220446049250313E-015  6.106226635438361E-016
 reorthoganalization of MOs is carried out
 sum over diagonal and offdiagdiagonal of C(T)*S*C for irrep
                     6
 -4.440892098500626E-016 -4.996003610813204E-016
 
 sum over diagonal and offdiagdiagonal of C(T)*S*C for irrep
                     7
  1.332267629550188E-015  5.551115123125783E-017
 reorthoganalization of MOs is carried out
 sum over diagonal and offdiagdiagonal of C(T)*S*C for irrep
                     7
  2.220446049250313E-016 -1.942890293094024E-016
 
 sum over diagonal and offdiagdiagonal of C(T)*S*C for irrep
                     1
 -7.616129948928574E-014  6.233531312691988E-014
 reorthoganalization of MOs is carried out
 sum over diagonal and offdiagdiagonal of C(T)*S*C for irrep
                     1
  9.325873406851315E-015 -1.092948683889194E-014
 
 sum over diagonal and offdiagdiagonal of C(T)*S*C for irrep
                     2
 -6.439293542825908E-014  6.104774828269804E-014
 reorthoganalization of MOs is carried out
 sum over diagonal and offdiagdiagonal of C(T)*S*C for irrep
                     2
 -2.220446049250313E-016  3.276912618085766E-015
 
 sum over diagonal and offdiagdiagonal of C(T)*S*C for irrep
                     3
  2.176037128265307E-014  3.417511947985363E-015
 reorthoganalization of MOs is carried out
 sum over diagonal and offdiagdiagonal of C(T)*S*C for irrep
                     3
 -7.660538869913580E-015  8.179530358277479E-015
 
 sum over diagonal and offdiagdiagonal of C(T)*S*C for irrep
                     4
 -1.099120794378905E-014  4.062635189569726E-016
 reorthoganalization of MOs is carried out
 sum over diagonal and offdiagdiagonal of C(T)*S*C for irrep
                     4
  3.108624468950438E-015 -2.684649853591251E-015
 
 sum over diagonal and offdiagdiagonal of C(T)*S*C for irrep
                     5
  1.110223024625157E-014 -6.475377905758116E-015
 reorthoganalization of MOs is carried out
 sum over diagonal and offdiagdiagonal of C(T)*S*C for irrep
                     5
 -1.110223024625157E-016  8.702086037658469E-017
 
 sum over diagonal and offdiagdiagonal of C(T)*S*C for irrep
                     6
 -4.440892098500626E-016 -3.608224830031759E-016
 reorthoganalization of MOs is carried out
 sum over diagonal and offdiagdiagonal of C(T)*S*C for irrep
                     6
 -1.110223024625157E-016  1.110223024625157E-016
 
 sum over diagonal and offdiagdiagonal of C(T)*S*C for irrep
                     7
  3.330669073875470E-015 -4.024558464266192E-016
 reorthoganalization of MOs is carried out
 sum over diagonal and offdiagdiagonal of C(T)*S*C for irrep
                     7
  0.000000000000000E+000 -8.326672684688674E-017
  processed                   2474  ao basis integrals from 
                     5  buffers.
  processed                   6979  ao basis integrals from 
                    12  buffers.
  processed                  10589  ao basis integrals from 
                    18  buffers.
       5          -145.190668625713897              0.6117458452D+00
   current occupation vector 
     4  2  3  1  1  0  1  0
     4  2  2  1  1  0  1  0
  processed                   2474  ao basis integrals from 
                     5  buffers.
  processed                   6979  ao basis integrals from 
                    12  buffers.
  processed                  10589  ao basis integrals from 
                    18  buffers.
       6          -150.263661658784031              0.6109570650D+00
   current occupation vector 
     4  3  2  1  1  1  0  0
     4  3  2  1  1  0  0  0
  processed                   2474  ao basis integrals from 
                     5  buffers.
  processed                   6979  ao basis integrals from 
                    12  buffers.
  processed                  10589  ao basis integrals from 
                    18  buffers.
       7          -150.459660518820726              0.9970603751D-01
   current occupation vector 
     4  3  2  1  1  1  0  0
     4  3  2  1  1  0  0  0
  processed                   2474  ao basis integrals from 
                     5  buffers.
  processed                   6979  ao basis integrals from 
                    12  buffers.
  processed                  10589  ao basis integrals from 
                    18  buffers.
       8          -150.485033184123097              0.3070852241D-01
   current occupation vector 
     4  3  2  1  1  1  0  0
     4  3  2  1  1  0  0  0
  processed                   2474  ao basis integrals from 
                     5  buffers.
  processed                   6979  ao basis integrals from 
                    12  buffers.
  processed                  10589  ao basis integrals from 
                    18  buffers.
       9          -150.491075640650138              0.2800089344D-01
   current occupation vector 
     4  3  2  1  1  1  0  0
     4  3  2  1  1  0  0  0
 
 sum over diagonal and offdiagdiagonal of C(T)*S*C for irrep
                     1
 -5.306866057708248E-014 -5.620562091721587E-014
 reorthoganalization of MOs is carried out
 sum over diagonal and offdiagdiagonal of C(T)*S*C for irrep
                     1
 -6.661338147750939E-015  7.376947376568975E-015
 
 sum over diagonal and offdiagdiagonal of C(T)*S*C for irrep
                     2
 -7.138734048339757E-014 -7.694183576449886E-014
 reorthoganalization of MOs is carried out
 sum over diagonal and offdiagdiagonal of C(T)*S*C for irrep
                     2
 -1.110223024625157E-016  2.573161781021866E-015
 
 sum over diagonal and offdiagdiagonal of C(T)*S*C for irrep
                     3
  2.298161660974074E-014 -9.101653223158030E-015
 reorthoganalization of MOs is carried out
 sum over diagonal and offdiagdiagonal of C(T)*S*C for irrep
                     3
  1.021405182655144E-014  1.282297096694648E-015
 
 sum over diagonal and offdiagdiagonal of C(T)*S*C for irrep
                     4
  8.881784197001252E-016 -3.075112911711449E-015
 reorthoganalization of MOs is carried out
 sum over diagonal and offdiagdiagonal of C(T)*S*C for irrep
                     4
 -7.771561172376096E-016 -1.115328035848302E-015
 
 sum over diagonal and offdiagdiagonal of C(T)*S*C for irrep
                     5
  8.770761894538737E-015  3.880288018925195E-016
 reorthoganalization of MOs is carried out
 sum over diagonal and offdiagdiagonal of C(T)*S*C for irrep
                     5
 -1.443289932012704E-015  1.067587514348923E-015
 
 sum over diagonal and offdiagdiagonal of C(T)*S*C for irrep
                     6
 -1.776356839400250E-015  3.330669073875470E-016
 reorthoganalization of MOs is carried out
 sum over diagonal and offdiagdiagonal of C(T)*S*C for irrep
                     6
 -3.330669073875470E-016 -2.775557561562891E-017
 
 sum over diagonal and offdiagdiagonal of C(T)*S*C for irrep
                     7
  3.996802888650564E-015 -7.771561172376096E-016
 reorthoganalization of MOs is carried out
 sum over diagonal and offdiagdiagonal of C(T)*S*C for irrep
                     7
  2.220446049250313E-016  2.220446049250313E-016
 
 sum over diagonal and offdiagdiagonal of C(T)*S*C for irrep
                     1
 -5.329070518200751E-014 -4.306361924445157E-014
 reorthoganalization of MOs is carried out
 sum over diagonal and offdiagdiagonal of C(T)*S*C for irrep
                     1
 -1.132427485117660E-014 -1.130445700792892E-014
 
 sum over diagonal and offdiagdiagonal of C(T)*S*C for irrep
                     2
 -6.739053759474700E-014 -6.709484780733694E-014
 reorthoganalization of MOs is carried out
 sum over diagonal and offdiagdiagonal of C(T)*S*C for irrep
                     2
 -8.881784197001252E-015 -4.390429339746950E-015
 
 sum over diagonal and offdiagdiagonal of C(T)*S*C for irrep
                     3
  2.464695114667848E-014 -3.814130628391967E-015
 reorthoganalization of MOs is carried out
 sum over diagonal and offdiagdiagonal of C(T)*S*C for irrep
                     3
  1.776356839400250E-015 -7.202200535044833E-015
 
 sum over diagonal and offdiagdiagonal of C(T)*S*C for irrep
                     4
 -1.443289932012704E-015 -2.096288559532364E-015
 reorthoganalization of MOs is carried out
 sum over diagonal and offdiagdiagonal of C(T)*S*C for irrep
                     4
  4.440892098500626E-016  6.562637381893083E-016
 
 sum over diagonal and offdiagdiagonal of C(T)*S*C for irrep
                     5
  1.176836406102666E-014 -4.898519746488994E-016
 reorthoganalization of MOs is carried out
 sum over diagonal and offdiagdiagonal of C(T)*S*C for irrep
                     5
 -1.332267629550188E-015  8.612470828226510E-016
 
 sum over diagonal and offdiagdiagonal of C(T)*S*C for irrep
                     6
  5.551115123125783E-016  4.996003610813204E-016
 reorthoganalization of MOs is carried out
 sum over diagonal and offdiagdiagonal of C(T)*S*C for irrep
                     6
 -2.220446049250313E-016 -4.440892098500626E-016
 
 sum over diagonal and offdiagdiagonal of C(T)*S*C for irrep
                     7
  2.220446049250313E-015 -6.661338147750939E-016
 reorthoganalization of MOs is carried out
 sum over diagonal and offdiagdiagonal of C(T)*S*C for irrep
                     7
 -1.110223024625157E-016  0.000000000000000E+000
  processed                   2474  ao basis integrals from 
                     5  buffers.
  processed                   6979  ao basis integrals from 
                    12  buffers.
  processed                  10589  ao basis integrals from 
                    18  buffers.
      10          -150.501252701361238              0.4464361649D-01
   current occupation vector 
     4  3  2  1  1  1  0  0
     4  3  2  1  1  0  0  0
  processed                   2474  ao basis integrals from 
                     5  buffers.
  processed                   6979  ao basis integrals from 
                    12  buffers.
  processed                  10589  ao basis integrals from 
                    18  buffers.
      11          -150.512114212012932              0.5177390949D-01
   current occupation vector 
     4  3  2  1  1  1  0  0
     4  3  2  1  1  0  0  0
  processed                   2474  ao basis integrals from 
                     5  buffers.
  processed                   6979  ao basis integrals from 
                    12  buffers.
  processed                  10589  ao basis integrals from 
                    18  buffers.
      12          -150.504353687379478              0.3958776642D-01
   current occupation vector 
     4  3  2  1  1  1  0  0
     4  3  2  1  1  0  0  0
  processed                   2474  ao basis integrals from 
                     5  buffers.
  processed                   6979  ao basis integrals from 
                    12  buffers.
  processed                  10589  ao basis integrals from 
                    18  buffers.
      13          -150.519350107431251              0.1413950343D+00
   current occupation vector 
     4  3  2  1  1  1  0  0
     4  3  2  1  1  0  0  0
  processed                   2474  ao basis integrals from 
                     5  buffers.
  processed                   6979  ao basis integrals from 
                    12  buffers.
  processed                  10589  ao basis integrals from 
                    18  buffers.
      14          -150.515676908229466              0.7769284639D-01
   current occupation vector 
     4  3  2  1  1  1  0  0
     4  3  2  1  1  0  0  0
 
 sum over diagonal and offdiagdiagonal of C(T)*S*C for irrep
                     1
 -8.115730310009894E-014 -1.058944714335522E-013
 reorthoganalization of MOs is carried out
 sum over diagonal and offdiagdiagonal of C(T)*S*C for irrep
                     1
  1.465494392505207E-014 -1.911213557855121E-015
 
 sum over diagonal and offdiagdiagonal of C(T)*S*C for irrep
                     2
 -6.805667140952210E-014 -8.728991827892974E-014
 reorthoganalization of MOs is carried out
 sum over diagonal and offdiagdiagonal of C(T)*S*C for irrep
                     2
 -7.993605777301127E-015 -8.307095168233261E-015
 
 sum over diagonal and offdiagdiagonal of C(T)*S*C for irrep
                     3
  3.641531520770513E-014  2.001443728453992E-014
 reorthoganalization of MOs is carried out
 sum over diagonal and offdiagdiagonal of C(T)*S*C for irrep
                     3
 -7.771561172376096E-016 -1.474153059264158E-015
 
 sum over diagonal and offdiagdiagonal of C(T)*S*C for irrep
                     4
 -3.996802888650564E-015 -3.811601550383775E-015
 reorthoganalization of MOs is carried out
 sum over diagonal and offdiagdiagonal of C(T)*S*C for irrep
                     4
  3.330669073875470E-016 -4.673206180514578E-016
 
 sum over diagonal and offdiagdiagonal of C(T)*S*C for irrep
                     5
  4.440892098500626E-015  5.753213585281092E-016
 reorthoganalization of MOs is carried out
 sum over diagonal and offdiagdiagonal of C(T)*S*C for irrep
                     5
  1.110223024625157E-016 -2.540724110540304E-017
 
 sum over diagonal and offdiagdiagonal of C(T)*S*C for irrep
                     6
 -1.776356839400250E-015  4.163336342344337E-016
 reorthoganalization of MOs is carried out
 sum over diagonal and offdiagdiagonal of C(T)*S*C for irrep
                     6
  4.440892098500626E-016  8.326672684688674E-017
 
 sum over diagonal and offdiagdiagonal of C(T)*S*C for irrep
                     7
  2.442490654175344E-015 -5.551115123125783E-016
 reorthoganalization of MOs is carried out
 sum over diagonal and offdiagdiagonal of C(T)*S*C for irrep
                     7
 -1.110223024625157E-016 -5.551115123125783E-016
 
 sum over diagonal and offdiagdiagonal of C(T)*S*C for irrep
                     1
 -6.317169010117141E-014 -6.637526118746069E-014
 reorthoganalization of MOs is carried out
 sum over diagonal and offdiagdiagonal of C(T)*S*C for irrep
                     1
 -4.440892098500626E-016 -7.203915567737024E-015
 
 sum over diagonal and offdiagdiagonal of C(T)*S*C for irrep
                     2
 -6.750155989720952E-014 -6.937901439666714E-014
 reorthoganalization of MOs is carried out
 sum over diagonal and offdiagdiagonal of C(T)*S*C for irrep
                     2
 -2.220446049250313E-016  1.068879892687553E-015
 
 sum over diagonal and offdiagdiagonal of C(T)*S*C for irrep
                     3
  2.431388423929093E-014 -7.748528133397649E-015
 reorthoganalization of MOs is carried out
 sum over diagonal and offdiagdiagonal of C(T)*S*C for irrep
                     3
 -5.995204332975845E-015 -5.528735616021450E-015
 
 sum over diagonal and offdiagdiagonal of C(T)*S*C for irrep
                     4
 -1.887379141862766E-015  2.271272749935781E-016
 reorthoganalization of MOs is carried out
 sum over diagonal and offdiagdiagonal of C(T)*S*C for irrep
                     4
 -1.665334536937735E-015  1.284031123251797E-015
 
 sum over diagonal and offdiagdiagonal of C(T)*S*C for irrep
                     5
  9.325873406851315E-015  2.088444672705673E-015
 reorthoganalization of MOs is carried out
 sum over diagonal and offdiagdiagonal of C(T)*S*C for irrep
                     5
 -2.220446049250313E-016  8.554881806202269E-016
 
 sum over diagonal and offdiagdiagonal of C(T)*S*C for irrep
                     6
 -2.220446049250313E-016  2.775557561562891E-016
 reorthoganalization of MOs is carried out
 sum over diagonal and offdiagdiagonal of C(T)*S*C for irrep
                     6
  0.000000000000000E+000 -5.551115123125783E-017
 
 sum over diagonal and offdiagdiagonal of C(T)*S*C for irrep
                     7
  1.554312234475219E-015 -8.881784197001252E-016
 reorthoganalization of MOs is carried out
 sum over diagonal and offdiagdiagonal of C(T)*S*C for irrep
                     7
  2.220446049250313E-016  0.000000000000000E+000
  processed                   2474  ao basis integrals from 
                     5  buffers.
  processed                   6979  ao basis integrals from 
                    12  buffers.
  processed                  10589  ao basis integrals from 
                    18  buffers.
      15          -150.521877506488352              0.4968953305D-01
   current occupation vector 
     4  3  2  1  1  1  0  0
     4  3  2  1  1  0  0  0
  processed                   2474  ao basis integrals from 
                     5  buffers.
  processed                   6979  ao basis integrals from 
                    12  buffers.
  processed                  10589  ao basis integrals from 
                    18  buffers.
      16          -150.521510097263558              0.2564026509D-01
   current occupation vector 
     4  3  2  1  1  1  0  0
     4  3  2  1  1  0  0  0
  processed                   2474  ao basis integrals from 
                     5  buffers.
  processed                   6979  ao basis integrals from 
                    12  buffers.
  processed                  10589  ao basis integrals from 
                    18  buffers.
      17          -150.522224594815384              0.1347591853D-01
   current occupation vector 
     4  3  2  1  1  1  0  0
     4  3  2  1  1  0  0  0
  processed                   2474  ao basis integrals from 
                     5  buffers.
  processed                   6979  ao basis integrals from 
                    12  buffers.
  processed                  10589  ao basis integrals from 
                    18  buffers.
      18          -150.522213960025113              0.2478302188D-02
   current occupation vector 
     4  3  2  1  1  1  0  0
     4  3  2  1  1  0  0  0
  processed                   2474  ao basis integrals from 
                     5  buffers.
  processed                   6979  ao basis integrals from 
                    12  buffers.
  processed                  10589  ao basis integrals from 
                    18  buffers.
      19          -150.522222150925472              0.7799956709D-03
   current occupation vector 
     4  3  2  1  1  1  0  0
     4  3  2  1  1  0  0  0
 
 sum over diagonal and offdiagdiagonal of C(T)*S*C for irrep
                     1
 -5.317968287954500E-014 -1.126353626293944E-013
 reorthoganalization of MOs is carried out
 sum over diagonal and offdiagdiagonal of C(T)*S*C for irrep
                     1
  1.443289932012704E-015  5.767544179090110E-015
 
 sum over diagonal and offdiagdiagonal of C(T)*S*C for irrep
                     2
 -7.693845560652335E-014 -8.568249041836656E-014
 reorthoganalization of MOs is carried out
 sum over diagonal and offdiagdiagonal of C(T)*S*C for irrep
                     2
  4.329869796038111E-015  4.694188217450550E-015
 
 sum over diagonal and offdiagdiagonal of C(T)*S*C for irrep
                     3
  2.797762022055394E-014  2.422294834312517E-014
 reorthoganalization of MOs is carried out
 sum over diagonal and offdiagdiagonal of C(T)*S*C for irrep
                     3
  5.551115123125783E-016  2.025276737887759E-015
 
 sum over diagonal and offdiagdiagonal of C(T)*S*C for irrep
                     4
 -3.219646771412954E-015 -3.133312448642465E-015
 reorthoganalization of MOs is carried out
 sum over diagonal and offdiagdiagonal of C(T)*S*C for irrep
                     4
 -2.220446049250313E-016  6.990097691617567E-016
 
 sum over diagonal and offdiagdiagonal of C(T)*S*C for irrep
                     5
  7.660538869913580E-015  6.644563622425048E-016
 reorthoganalization of MOs is carried out
 sum over diagonal and offdiagdiagonal of C(T)*S*C for irrep
                     5
  1.110223024625157E-016  1.837412354237490E-016
 
 sum over diagonal and offdiagdiagonal of C(T)*S*C for irrep
                     6
 -2.331468351712829E-015  3.885780586188048E-016
 reorthoganalization of MOs is carried out
 sum over diagonal and offdiagdiagonal of C(T)*S*C for irrep
                     6
  0.000000000000000E+000  1.387778780781446E-016
 
 sum over diagonal and offdiagdiagonal of C(T)*S*C for irrep
                     7
  1.998401444325282E-015 -7.771561172376096E-016
 reorthoganalization of MOs is carried out
 sum over diagonal and offdiagdiagonal of C(T)*S*C for irrep
                     7
  4.440892098500626E-016 -1.665334536937735E-016
 
 sum over diagonal and offdiagdiagonal of C(T)*S*C for irrep
                     1
 -5.839773109528323E-014 -3.322633931354054E-014
 reorthoganalization of MOs is carried out
 sum over diagonal and offdiagdiagonal of C(T)*S*C for irrep
                     1
 -1.709743457922741E-014 -2.238158428855031E-014
 
 sum over diagonal and offdiagdiagonal of C(T)*S*C for irrep
                     2
 -8.670841822322473E-014 -8.119235715933514E-014
 reorthoganalization of MOs is carried out
 sum over diagonal and offdiagdiagonal of C(T)*S*C for irrep
                     2
  8.659739592076221E-015  3.535200849867474E-015
 
 sum over diagonal and offdiagdiagonal of C(T)*S*C for irrep
                     3
  2.509104035652854E-014 -8.720668698521776E-015
 reorthoganalization of MOs is carried out
 sum over diagonal and offdiagdiagonal of C(T)*S*C for irrep
                     3
 -4.329869796038111E-015 -1.377837798739300E-016
 
 sum over diagonal and offdiagdiagonal of C(T)*S*C for irrep
                     4
 -5.329070518200751E-015 -1.199556156533957E-015
 reorthoganalization of MOs is carried out
 sum over diagonal and offdiagdiagonal of C(T)*S*C for irrep
                     4
 -1.110223024625157E-016 -5.501727535367880E-016
 
 sum over diagonal and offdiagdiagonal of C(T)*S*C for irrep
                     5
  4.107825191113079E-015  7.284666851095996E-017
 reorthoganalization of MOs is carried out
 sum over diagonal and offdiagdiagonal of C(T)*S*C for irrep
                     5
  2.220446049250313E-016  4.791589077922886E-016
 
 sum over diagonal and offdiagdiagonal of C(T)*S*C for irrep
                     6
 -1.110223024625157E-016 -1.110223024625157E-016
 reorthoganalization of MOs is carried out
 sum over diagonal and offdiagdiagonal of C(T)*S*C for irrep
                     6
  1.110223024625157E-016 -1.665334536937735E-016
 
 sum over diagonal and offdiagdiagonal of C(T)*S*C for irrep
                     7
  3.552713678800501E-015 -6.661338147750939E-016
 reorthoganalization of MOs is carried out
 sum over diagonal and offdiagdiagonal of C(T)*S*C for irrep
                     7
  6.661338147750939E-016 -2.775557561562891E-016
  processed                   2474  ao basis integrals from 
                     5  buffers.
  processed                   6979  ao basis integrals from 
                    12  buffers.
  processed                  10589  ao basis integrals from 
                    18  buffers.
      20          -150.522225994354415              0.1039452240D-02
   current occupation vector 
     4  3  2  1  1  1  0  0
     4  3  2  1  1  0  0  0
  processed                   2474  ao basis integrals from 
                     5  buffers.
  processed                   6979  ao basis integrals from 
                    12  buffers.
  processed                  10589  ao basis integrals from 
                    18  buffers.
      21          -150.522226010261306              0.7558356229D-04
   current occupation vector 
     4  3  2  1  1  1  0  0
     4  3  2  1  1  0  0  0
  processed                   2474  ao basis integrals from 
                     5  buffers.
  processed                   6979  ao basis integrals from 
                    12  buffers.
  processed                  10589  ao basis integrals from 
                    18  buffers.
      22          -150.522226010350835              0.1220693870D-04
   current occupation vector 
     4  3  2  1  1  1  0  0
     4  3  2  1  1  0  0  0
  processed                   2474  ao basis integrals from 
                     5  buffers.
  processed                   6979  ao basis integrals from 
                    12  buffers.
  processed                  10589  ao basis integrals from 
                    18  buffers.
      23          -150.522226010529209              0.6136479440D-05
   current occupation vector 
     4  3  2  1  1  1  0  0
     4  3  2  1  1  0  0  0
  processed                   2474  ao basis integrals from 
                     5  buffers.
  processed                   6979  ao basis integrals from 
                    12  buffers.
  processed                  10589  ao basis integrals from 
                    18  buffers.
      24          -150.522226010535405              0.1165871479D-05
   current occupation vector 
     4  3  2  1  1  1  0  0
     4  3  2  1  1  0  0  0
 
 sum over diagonal and offdiagdiagonal of C(T)*S*C for irrep
                     1
 -6.161737786669619E-014 -1.046447160114817E-013
 reorthoganalization of MOs is carried out
 sum over diagonal and offdiagdiagonal of C(T)*S*C for irrep
                     1
 -2.220446049250313E-016 -4.673722761182930E-015
 
 sum over diagonal and offdiagdiagonal of C(T)*S*C for irrep
                     2
 -7.283063041541027E-014 -7.905119345714387E-014
 reorthoganalization of MOs is carried out
 sum over diagonal and offdiagdiagonal of C(T)*S*C for irrep
                     2
 -6.217248937900877E-015 -4.624924973376847E-015
 
 sum over diagonal and offdiagdiagonal of C(T)*S*C for irrep
                     3
  2.686739719592879E-014  2.303520580988478E-014
 reorthoganalization of MOs is carried out
 sum over diagonal and offdiagdiagonal of C(T)*S*C for irrep
                     3
 -3.774758283725532E-015 -4.875057540331232E-015
 
 sum over diagonal and offdiagdiagonal of C(T)*S*C for irrep
                     4
  3.108624468950438E-015 -3.268299890237017E-015
 reorthoganalization of MOs is carried out
 sum over diagonal and offdiagdiagonal of C(T)*S*C for irrep
                     4
  1.554312234475219E-015 -1.386726687309740E-015
 
 sum over diagonal and offdiagdiagonal of C(T)*S*C for irrep
                     5
  8.437694987151190E-015  1.543935614500938E-015
 reorthoganalization of MOs is carried out
 sum over diagonal and offdiagdiagonal of C(T)*S*C for irrep
                     5
  8.881784197001252E-016 -8.998383214319415E-016
 
 sum over diagonal and offdiagdiagonal of C(T)*S*C for irrep
                     6
 -8.881784197001252E-016  5.551115123125783E-016
 reorthoganalization of MOs is carried out
 sum over diagonal and offdiagdiagonal of C(T)*S*C for irrep
                     6
  2.220446049250313E-016 -3.885780586188048E-016
 
 sum over diagonal and offdiagdiagonal of C(T)*S*C for irrep
                     7
  1.776356839400250E-015 -5.551115123125783E-016
 reorthoganalization of MOs is carried out
 sum over diagonal and offdiagdiagonal of C(T)*S*C for irrep
                     7
  2.220446049250313E-016 -3.885780586188048E-016
 
 sum over diagonal and offdiagdiagonal of C(T)*S*C for irrep
                     1
 -6.616929226765933E-014 -6.609601948702501E-014
 reorthoganalization of MOs is carried out
 sum over diagonal and offdiagdiagonal of C(T)*S*C for irrep
                     1
 -6.883382752675971E-015 -1.511284356071058E-015
 
 sum over diagonal and offdiagdiagonal of C(T)*S*C for irrep
                     2
 -7.660538869913580E-014 -6.773535693582713E-014
 reorthoganalization of MOs is carried out
 sum over diagonal and offdiagdiagonal of C(T)*S*C for irrep
                     2
  2.109423746787797E-015 -2.461648219124345E-015
 
 sum over diagonal and offdiagdiagonal of C(T)*S*C for irrep
                     3
  1.576516694967722E-014 -7.394847191659781E-015
 reorthoganalization of MOs is carried out
 sum over diagonal and offdiagdiagonal of C(T)*S*C for irrep
                     3
 -5.551115123125783E-016  6.951229116915974E-016
 
 sum over diagonal and offdiagdiagonal of C(T)*S*C for irrep
                     4
 -2.997602166487923E-015 -4.852436911944258E-015
 reorthoganalization of MOs is carried out
 sum over diagonal and offdiagdiagonal of C(T)*S*C for irrep
                     4
 -1.887379141862766E-015  2.693235590730672E-015
 
 sum over diagonal and offdiagdiagonal of C(T)*S*C for irrep
                     5
  3.441691376337985E-015  1.681296423626755E-015
 reorthoganalization of MOs is carried out
 sum over diagonal and offdiagdiagonal of C(T)*S*C for irrep
                     5
  4.440892098500626E-016 -4.139037234028585E-016
 
 sum over diagonal and offdiagdiagonal of C(T)*S*C for irrep
                     6
  8.881784197001252E-016  1.110223024625157E-016
 reorthoganalization of MOs is carried out
 sum over diagonal and offdiagdiagonal of C(T)*S*C for irrep
                     6
 -3.330669073875470E-016 -5.551115123125783E-017
 
 sum over diagonal and offdiagdiagonal of C(T)*S*C for irrep
                     7
  2.220446049250313E-015 -6.106226635438361E-016
 reorthoganalization of MOs is carried out
 sum over diagonal and offdiagdiagonal of C(T)*S*C for irrep
                     7
  4.440892098500626E-016  1.665334536937735E-016
  processed                   2474  ao basis integrals from 
                     5  buffers.
  processed                   6979  ao basis integrals from 
                    12  buffers.
  processed                  10589  ao basis integrals from 
                    18  buffers.
      25          -150.522226010535974              0.5188456996D-06
   current occupation vector 
     4  3  2  1  1  1  0  0
     4  3  2  1  1  0  0  0
  processed                   2474  ao basis integrals from 
                     5  buffers.
  processed                   6979  ao basis integrals from 
                    12  buffers.
  processed                  10589  ao basis integrals from 
                    18  buffers.
      26          -150.522226010536315              0.9608175090D-07
   current occupation vector 
     4  3  2  1  1  1  0  0
     4  3  2  1  1  0  0  0
  processed                   2474  ao basis integrals from 
                     5  buffers.
  processed                   6979  ao basis integrals from 
                    12  buffers.
  processed                  10589  ao basis integrals from 
                    18  buffers.
      27          -150.522226010536031              0.1271430452D-07
   current occupation vector 
     4  3  2  1  1  1  0  0
     4  3  2  1  1  0  0  0
  processed                   2474  ao basis integrals from 
                     5  buffers.
  processed                   6979  ao basis integrals from 
                    12  buffers.
  processed                  10589  ao basis integrals from 
                    18  buffers.
      28          -150.522226010535803              0.1646307424D-08
   current occupation vector 
     4  3  2  1  1  1  0  0
     4  3  2  1  1  0  0  0
  processed                   2474  ao basis integrals from 
                     5  buffers.
  processed                   6979  ao basis integrals from 
                    12  buffers.
  processed                  10589  ao basis integrals from 
                    18  buffers.
      29          -150.522226010536031              0.9764224429D-09
   current occupation vector 
     4  3  2  1  1  1  0  0
     4  3  2  1  1  0  0  0
 
 sum over diagonal and offdiagdiagonal of C(T)*S*C for irrep
                     1
 -7.183142969324763E-014 -8.736708197751435E-014
 reorthoganalization of MOs is carried out
 sum over diagonal and offdiagdiagonal of C(T)*S*C for irrep
                     1
 -2.442490654175344E-014 -2.216960311199252E-014
 
 sum over diagonal and offdiagdiagonal of C(T)*S*C for irrep
                     2
 -7.183142969324763E-014 -8.107086281142742E-014
 reorthoganalization of MOs is carried out
 sum over diagonal and offdiagdiagonal of C(T)*S*C for irrep
                     2
  4.773959005888173E-015  3.194069622494697E-015
 
 sum over diagonal and offdiagdiagonal of C(T)*S*C for irrep
                     3
  2.520206265899105E-014  2.826227211957216E-014
 reorthoganalization of MOs is carried out
 sum over diagonal and offdiagdiagonal of C(T)*S*C for irrep
                     3
  1.443289932012704E-015 -9.256179506644294E-017
 
 sum over diagonal and offdiagdiagonal of C(T)*S*C for irrep
                     4
  7.771561172376096E-016 -2.173627673848950E-015
 reorthoganalization of MOs is carried out
 sum over diagonal and offdiagdiagonal of C(T)*S*C for irrep
                     4
  8.881784197001252E-016 -1.922126681796244E-015
 
 sum over diagonal and offdiagdiagonal of C(T)*S*C for irrep
                     5
  1.099120794378905E-014  2.486387958691881E-015
 reorthoganalization of MOs is carried out
 sum over diagonal and offdiagdiagonal of C(T)*S*C for irrep
                     5
  2.220446049250313E-016  1.199403795541354E-016
 
 sum over diagonal and offdiagdiagonal of C(T)*S*C for irrep
                     6
 -7.771561172376096E-016  1.665334536937735E-016
 reorthoganalization of MOs is carried out
 sum over diagonal and offdiagdiagonal of C(T)*S*C for irrep
                     6
 -4.440892098500626E-016  1.942890293094024E-016
 
 sum over diagonal and offdiagdiagonal of C(T)*S*C for irrep
                     7
  2.664535259100376E-015 -6.661338147750939E-016
 reorthoganalization of MOs is carried out
 sum over diagonal and offdiagdiagonal of C(T)*S*C for irrep
                     7
 -2.220446049250313E-016 -3.885780586188048E-016
 
 sum over diagonal and offdiagdiagonal of C(T)*S*C for irrep
                     1
 -5.595524044110789E-014 -6.481798881514997E-014
 reorthoganalization of MOs is carried out
 sum over diagonal and offdiagdiagonal of C(T)*S*C for irrep
                     1
  1.554312234475219E-015  2.002894571230406E-014
 
 sum over diagonal and offdiagdiagonal of C(T)*S*C for irrep
                     2
 -7.538414337204813E-014 -7.222791367740122E-014
 reorthoganalization of MOs is carried out
 sum over diagonal and offdiagdiagonal of C(T)*S*C for irrep
                     2
[...]
[  7   2  31  20]-0.01523 [  8   4  27  10] 0.01495 [  6   4  19  10] 0.01427
[  7   4  27  17] 0.01389 [  7   6  31  15] 0.01340 [  7   2  31  21] 0.01277
[  8   3  27  10]-0.01266 [  6   2  24  10] 0.01176 [  7   6  31  17] 0.01140
-----------------------------------------------------------------------------
   Norm of T2AA vector (     1008 symmetry allowed elements):  0.1153990200.
-----------------------------------------------------------------------------
   Largest T1 amplitudes for spin case BB:
   i       a                 i       a                 i       a    
-----------------------------------------------------------------------------
[  2       8    ] 0.07233 [  7      26    ] 0.04904 [  5      18    ] 0.04882
[  6      23    ] 0.04672 [  4      14    ] 0.04221 [  4      16    ]-0.03954
[  6      24    ] 0.02864 [  7      27    ] 0.02792 [  4      15    ] 0.02134
[  4      17    ]-0.02052 [  6      25    ] 0.02036 [  3      14    ] 0.02018
[  1       8    ] 0.01865 [  7      28    ] 0.01389 [  5      21    ] 0.01240
-----------------------------------------------------------------------------
   Norm of T1BB vector (       31 symmetry allowed elements):  0.1423145881.
-----------------------------------------------------------------------------
   Largest T2 amplitudes for spin case BB:
   i   j   a   b             i   j   a   b             i   j   a   b
-----------------------------------------------------------------------------
[  6   4  18   8]-0.03760 [  7   2  31  18] 0.03697 [  7   4  29   8]-0.03132
[  7   2  31  20]-0.02354 [  4   3   9   8] 0.02061 [  6   2  18  14] 0.01961
[  7   4  31  23]-0.01871 [  7   6  29  18]-0.01845 [  7   6  31  14] 0.01756
[  7   5  31  11] 0.01626 [  7   5  31   8] 0.01603 [  7   2  31  19]-0.01515
[  7   6  31  16] 0.01512 [  6   2  18  16] 0.01495 [  6   4  19   8]-0.01374
-----------------------------------------------------------------------------
   Norm of T2BB vector (      855 symmetry allowed elements):  0.1260223219.
-----------------------------------------------------------------------------
   Largest T2 amplitudes for spin case AB:
       _       _                 _       _                 _       _
   i   j   a   b             i   j   a   b             i   j   a   b
-----------------------------------------------------------------------------
[  4   4   9   8]-0.34101 [  8   4  27   8]-0.23229 [  7   7  31  31]-0.09079
[  2   2   9   8]-0.08499 [  5   2   9  18]-0.07680 [  4   4  10   8] 0.07531
[  8   4   9  26]-0.07456 [  8   7  27  29]-0.07039 [  8   2   9  29]-0.06942
[  6   4  19   8]-0.06842 [  5   7   9  31] 0.06678 [  4   4   9  12]-0.06663
[  2   4  27  29]-0.05697 [  7   4   9  29]-0.05467 [  2   5   9  18]-0.05050
-----------------------------------------------------------------------------
   Norm of T2AB vector (     4560 symmetry allowed elements):  0.6200531058.
-----------------------------------------------------------------------------
  W(mnij) AA contribution =  0.0064661504 a.u.
  W(mnij) BB contribution =  0.0055607348 a.u.
  W(mnij) AB contribution =  0.1667666797 a.u.
  W(abef) AA contribution =  0.0070311979 a.u.
  W(abef) BB contribution =  0.0066208031 a.u.
  W(abef) AB contribution =  0.1686638052 a.u.
  W(mbej) AA contribution =  -0.0036783635 a.u.
  W(mbej) BB contribution =  -0.0054750678 a.u.
  W(mbej) AB contribution = -0.5158551486 a.u.
   After  26 iterations, amplitude changes are:
    -------------------------------------------------------------------
                 Spin      RMS          Max.      Max. change for
     Amplitude   Case     Change       Change       i    j    a    b
    -------------------------------------------------------------------
        T1        AA    0.0000000004-0.0000000064    2        10
        T1        BB    0.0000000003 0.0000000084    2         8
        T2        AA    0.0000000000-0.0000000047    6    4   19    9
        T2        BB    0.0000000000 0.0000000023    7    4   29    8
        T2        AB    0.0000000000-0.0000000177    8    4   27    8
    -------------------------------------------------------------------
   The AA contribution to the correlation energy is:   -0.0308574 a.u.
   The BB contribution to the correlation energy is:   -0.0378346 a.u.
   The AB contribution to the correlation energy is:   -0.3122150 a.u.
   The total correlation energy is -0.380907005129 a.u.
   The total correlation energy is -0.380907005129 a.u.
  Current DIIS expansion coefficients : 
 [   1] 1.3514628300 [   2]-0.0124557256 [   3] 0.0678910736 [   4] 0.0777672245
 [   5]-0.4846654026
  Convergence information after    26 iterations: 
  Largest element of residual vector : -0.17665204E-07.
  Largest element of DIIS residual   : -0.17529196E-07.
  W(mnij) AA contribution =  0.0064661502 a.u.
  W(mnij) BB contribution =  0.0055607348 a.u.
  W(mnij) AB contribution =  0.1667666799 a.u.
  W(abef) AA contribution =  0.0070311976 a.u.
  W(abef) BB contribution =  0.0066208031 a.u.
  W(abef) AB contribution =  0.1686638068 a.u.
  W(mbej) AA contribution =  -0.0036783627 a.u.
  W(mbej) BB contribution =  -0.0054750673 a.u.
  W(mbej) AB contribution = -0.5158551513 a.u.
   After  27 iterations, amplitude changes are:
    -------------------------------------------------------------------
                 Spin      RMS          Max.      Max. change for
     Amplitude   Case     Change       Change       i    j    a    b
    -------------------------------------------------------------------
        T1        AA    0.0000000002 0.0000000058    2         9
        T1        BB    0.0000000001 0.0000000025    4        14
        T2        AA    0.0000000000 0.0000000016    8    6   27   19
        T2        BB    0.0000000000 0.0000000033    7    4   29    8
        T2        AB    0.0000000000 0.0000000111    4    4    9    8
    -------------------------------------------------------------------
   The AA contribution to the correlation energy is:   -0.0308574 a.u.
   The BB contribution to the correlation energy is:   -0.0378346 a.u.
   The AB contribution to the correlation energy is:   -0.3122150 a.u.
   The total correlation energy is -0.380907004725 a.u.
   The total correlation energy is -0.380907004725 a.u.
  Current DIIS expansion coefficients : 
 [   1]-0.2107075282 [   2] 1.3718060851 [   3] 0.0300152191 [   4]-0.0662272103
 [   5]-0.1248865657
  Convergence information after    27 iterations: 
  Largest element of residual vector :  0.11138973E-07.
  Largest element of DIIS residual   : -0.41413715E-08.
  W(mnij) AA contribution =  0.0064661496 a.u.
  W(mnij) BB contribution =  0.0055607346 a.u.
  W(mnij) AB contribution =  0.1667666629 a.u.
  W(abef) AA contribution =  0.0070311971 a.u.
  W(abef) BB contribution =  0.0066208029 a.u.
  W(abef) AB contribution =  0.1686637939 a.u.
  W(mbej) AA contribution =  -0.0036783622 a.u.
  W(mbej) BB contribution =  -0.0054750671 a.u.
  W(mbej) AB contribution = -0.5158551007 a.u.
   After  28 iterations, amplitude changes are:
    -------------------------------------------------------------------
                 Spin      RMS          Max.      Max. change for
     Amplitude   Case     Change       Change       i    j    a    b
    -------------------------------------------------------------------
        T1        AA    0.0000000001-0.0000000038    2         9
        T1        BB    0.0000000001-0.0000000017    7        26
        T2        AA    0.0000000000-0.0000000006    6    4   19    9
        T2        BB    0.0000000000 0.0000000008    7    4   29    8
        T2        AB    0.0000000000-0.0000000041    8    4   27    8
    -------------------------------------------------------------------
   The AA contribution to the correlation energy is:   -0.0308574 a.u.
   The BB contribution to the correlation energy is:   -0.0378346 a.u.
   The AB contribution to the correlation energy is:   -0.3122150 a.u.
   The total correlation energy is -0.380907003582 a.u.
   The total correlation energy is -0.380907003582 a.u.
  Current DIIS expansion coefficients : 
 [   1]-0.3379623016 [   2]-0.2445393146 [   3] 1.4179749962 [   4]-0.0203617533
 [   5] 0.1848883733
  Convergence information after    28 iterations: 
  Largest element of residual vector : -0.40882883E-08.
  Largest element of DIIS residual   : -0.24131560E-08.
  W(mnij) AA contribution =  0.0064661498 a.u.
  W(mnij) BB contribution =  0.0055607346 a.u.
  W(mnij) AB contribution =  0.1667666678 a.u.
  W(abef) AA contribution =  0.0070311972 a.u.
  W(abef) BB contribution =  0.0066208029 a.u.
  W(abef) AB contribution =  0.1686637981 a.u.
  W(mbej) AA contribution =  -0.0036783622 a.u.
  W(mbej) BB contribution =  -0.0054750671 a.u.
  W(mbej) AB contribution = -0.5158551162 a.u.
   After  29 iterations, amplitude changes are:
    -------------------------------------------------------------------
                 Spin      RMS          Max.      Max. change for
     Amplitude   Case     Change       Change       i    j    a    b
    -------------------------------------------------------------------
        T1        AA    0.0000000000-0.0000000010    2         9
        T1        BB    0.0000000000-0.0000000010    2         8
        T2        AA    0.0000000000 0.0000000002    8    6   27   19
        T2        BB    0.0000000000 0.0000000004    7    4   29    8
        T2        AB    0.0000000000-0.0000000010    8    4   27    8
    -------------------------------------------------------------------
   The AA contribution to the correlation energy is:   -0.0308574 a.u.
   The BB contribution to the correlation energy is:   -0.0378346 a.u.
   The AB contribution to the correlation energy is:   -0.3122150 a.u.
   The total correlation energy is -0.380907004116 a.u.
   The total correlation energy is -0.380907004116 a.u.
  Current DIIS expansion coefficients : 
 [   1] 0.1201072632 [   2]-0.0207510343 [   3]-0.5223938548 [   4] 1.4527401183
 [   5]-0.0297024924
  Convergence information after    29 iterations: 
  Largest element of residual vector : -0.10006298E-08.
  Largest element of DIIS residual   : -0.77528368E-09.
  W(mnij) AA contribution =  0.0064661498 a.u.
  W(mnij) BB contribution =  0.0055607346 a.u.
  W(mnij) AB contribution =  0.1667666680 a.u.
  W(abef) AA contribution =  0.0070311972 a.u.
  W(abef) BB contribution =  0.0066208029 a.u.
  W(abef) AB contribution =  0.1686637983 a.u.
  W(mbej) AA contribution =  -0.0036783622 a.u.
  W(mbej) BB contribution =  -0.0054750671 a.u.
  W(mbej) AB contribution = -0.5158551173 a.u.
   After  30 iterations, amplitude changes are:
    -------------------------------------------------------------------
                 Spin      RMS          Max.      Max. change for
     Amplitude   Case     Change       Change       i    j    a    b
    -------------------------------------------------------------------
        T1        AA    0.0000000000 0.0000000006    2         9
        T1        BB    0.0000000000-0.0000000004    2         8
        T2        AA    0.0000000000-0.0000000001    6    4   19    9
        T2        BB    0.0000000000 0.0000000001    6    4   18    8
        T2        AB    0.0000000000-0.0000000007    8    4   27    8
    -------------------------------------------------------------------
   The AA contribution to the correlation energy is:   -0.0308574 a.u.
   The BB contribution to the correlation energy is:   -0.0378346 a.u.
   The AB contribution to the correlation energy is:   -0.3122150 a.u.
   The total correlation energy is -0.380907004269 a.u.
   The total correlation energy is -0.380907004269 a.u.
  Current DIIS expansion coefficients : 
 [   1]-0.0053706376 [   2]-0.0030189423 [   3] 0.0372907500 [   4] 0.0034337976
 [   5] 0.9676650321
  Convergence information after    30 iterations: 
  Largest element of residual vector : -0.68650016E-09.
  Largest element of DIIS residual   : -0.70693948E-09.
  Amplitude equations converged in    30iterations.
   The AA contribution to the correlation energy is:   -0.0308574 a.u.
   The BB contribution to the correlation energy is:   -0.0378346 a.u.
   The AB contribution to the correlation energy is:   -0.3122150 a.u.
   The total correlation energy is -0.380907004237 a.u.
   The total correlation energy is -0.380907004237 a.u.
   The CC iterations have converged.

            ----------------------------------------------
                     Projected spin multiplicities: 
            ----------------------------------------------
             <0|S^2|0>                  =    1.7201764284.
             <0|S^2 (T2+T1**2) |0>      =   -0.2680442848.
             <0|S^2 T1|0>               =   -0.3334284494.
             Projected <0|S^2 exp(T)|0> =    1.1187036942.
             Approximate spin mult.     =    2.3398322113.
            ----------------------------------------------
   Largest T1 amplitudes for spin case AA:
   i       a                 i       a                 i       a    
-----------------------------------------------------------------------------
[  2       9    ]-0.42872 [  7      27    ]-0.14156 [  5      19    ]-0.07431
[  2      12    ]-0.03541 [  5      21    ]-0.02833 [  7      29    ]-0.02247
[  2      11    ] 0.02069 [  2      10    ] 0.01811 [  5      20    ] 0.01441
[  7      28    ] 0.01412 [  4      15    ]-0.01367 [  8      30    ] 0.01312
[  5      23    ] 0.00855 [  6      24    ] 0.00773 [  5      22    ] 0.00701
-----------------------------------------------------------------------------
   Norm of T1AA vector (       32 symmetry allowed elements):  0.4623758268.
-----------------------------------------------------------------------------
   Largest T2 amplitudes for spin case AA:
   i   j   a   b             i   j   a   b             i   j   a   b
-----------------------------------------------------------------------------
[  8   6  27  19]-0.02281 [  6   2  24   9]-0.02095 [  5   2  20   9]-0.01922
[  7   5  31   9] 0.01785 [  7   6  27  24]-0.01688 [  7   4  31  24]-0.01589
[  7   2  31  20]-0.01523 [  8   4  27  10] 0.01495 [  6   4  19  10] 0.01427
[  7   4  27  17] 0.01389 [  7   6  31  15] 0.01340 [  7   2  31  21] 0.01277
[  8   3  27  10]-0.01266 [  6   2  24  10] 0.01176 [  7   6  31  17] 0.01140
-----------------------------------------------------------------------------
   Norm of T2AA vector (     1008 symmetry allowed elements):  0.1153990152.
-----------------------------------------------------------------------------
   Largest T1 amplitudes for spin case BB:
   i       a                 i       a                 i       a    
-----------------------------------------------------------------------------
[  2       8    ] 0.07233 [  7      26    ] 0.04904 [  5      18    ] 0.04882
[  6      23    ] 0.04672 [  4      14    ] 0.04221 [  4      16    ]-0.03954
[  6      24    ] 0.02864 [  7      27    ] 0.02792 [  4      15    ] 0.02134
[  4      17    ]-0.02052 [  6      25    ] 0.02036 [  3      14    ] 0.02018
[  1       8    ] 0.01865 [  7      28    ] 0.01389 [  5      21    ] 0.01240
-----------------------------------------------------------------------------
   Norm of T1BB vector (       31 symmetry allowed elements):  0.1423146056.
-----------------------------------------------------------------------------
   Largest T2 amplitudes for spin case BB:
   i   j   a   b             i   j   a   b             i   j   a   b
-----------------------------------------------------------------------------
[  6   4  18   8]-0.03760 [  7   2  31  18] 0.03697 [  7   4  29   8]-0.03132
[  7   2  31  20]-0.02354 [  4   3   9   8] 0.02061 [  6   2  18  14] 0.01961
[  7   4  31  23]-0.01871 [  7   6  29  18]-0.01845 [  7   6  31  14] 0.01756
[  7   5  31  11] 0.01626 [  7   5  31   8] 0.01603 [  7   2  31  19]-0.01515
[  7   6  31  16] 0.01512 [  6   2  18  16] 0.01495 [  6   4  19   8]-0.01374
-----------------------------------------------------------------------------
   Norm of T2BB vector (      855 symmetry allowed elements):  0.1260223182.
-----------------------------------------------------------------------------
   Largest T2 amplitudes for spin case AB:
       _       _                 _       _                 _       _
   i   j   a   b             i   j   a   b             i   j   a   b
-----------------------------------------------------------------------------
[  4   4   9   8]-0.34101 [  8   4  27   8]-0.23229 [  7   7  31  31]-0.09079
[  2   2   9   8]-0.08499 [  5   2   9  18]-0.07680 [  4   4  10   8] 0.07531
[  8   4   9  26]-0.07456 [  8   7  27  29]-0.07039 [  8   2   9  29]-0.06942
[  6   4  19   8]-0.06842 [  5   7   9  31] 0.06678 [  4   4   9  12]-0.06663
[  2   4  27  29]-0.05697 [  7   4   9  29]-0.05467 [  2   5   9  18]-0.05050
-----------------------------------------------------------------------------
   Norm of T2AB vector (     4560 symmetry allowed elements):  0.6200530794.
-----------------------------------------------------------------------------
       Summary of iterative solution of CC equations 
      -----------------------------------------------------------
                       Correlation           Total
       Iteration         Energy              Energy
      -----------------------------------------------------------
            0        -0.344538495284    -150.866764505820  DIIS 
            1        -0.327262363172    -150.849488373708  DIIS 
            2        -0.356433183785    -150.878659194321  DIIS 
            3        -0.357676781432    -150.879902791968  DIIS 
            4        -0.369309718322    -150.891535728858  DIIS 
            5        -0.373794807316    -150.896020817852  DIIS 
            6        -0.377625168821    -150.899851179357  DIIS 
            7        -0.379659329587    -150.901885340123  DIIS 
            8        -0.380588765419    -150.902814775955  DIIS 
            9        -0.380801579798    -150.903027590334  DIIS 
           10        -0.380791795840    -150.903017806376  DIIS 
           11        -0.380860487927    -150.903086498463  DIIS 
           12        -0.380870125956    -150.903096136492  DIIS 
           13        -0.380881285249    -150.903107295785  DIIS 
           14        -0.380895022707    -150.903121033243  DIIS 
           15        -0.380905658192    -150.903131668728  DIIS 
           16        -0.380907481068    -150.903133491604  DIIS 
           17        -0.380907498041    -150.903133508577  DIIS 
           18        -0.380907886213    -150.903133896749  DIIS 
           19        -0.380907533378    -150.903133543914  DIIS 
           20        -0.380907353972    -150.903133364508  DIIS 
           21        -0.380907173738    -150.903133184274  DIIS 
           22        -0.380907093099    -150.903133103635  DIIS 
           23        -0.380907076207    -150.903133086743  DIIS 
           24        -0.380907037183    -150.903133047719  DIIS 
           25        -0.380907016054    -150.903133026590  DIIS 
           26        -0.380907005129    -150.903133015665  DIIS 
           27        -0.380907004725    -150.903133015261  DIIS 
           28        -0.380907003582    -150.903133014118  DIIS 
           29        -0.380907004116    -150.903133014653  DIIS 
           30        -0.380907004237    -150.903133014773  DIIS 
      -----------------------------------------------------------
      A miracle has come to pass. The CC iterations have converged.
      The reference energy is      -150.52222601053603 a.u.
      The correlation energy is      -0.38090700423697 a.u.
      The total energy is          -150.90313301477300 a.u.
  @CHECKOUT-I, Total execution time (CPU/WALL):        2.16/       0.56 seconds.
--executable xvcc finished with status     0 in        0.63 seconds (walltime).
  The final electronic energy is      -150.903133014773005 a.u. 
  This computation required                           81.65 seconds (walltime).
