 **********************************************************************
                          MRCC program system
 **********************************************************************
 
                              Written by
 Mihaly Kallay, Peter R. Nagy, David Mester, Zoltan Rolik, Gyula Samu,
   Jozsef Csontos, Jozsef Csoka, P. Bernat Szabo, Laszlo Gyevi-Nagy,
    Bence Hegely, Istvan Ladjanszki, Lorant Szegedy, Bence Ladoczki,
       Klara Petrov, Mate Farkas, Pal D. Mezei, and Adam Ganyecz
 
        Department of Physical Chemistry and Materials Science
            Budapest University of Technology and Economics
                  Budapest P.O.Box 91, H-1521 Hungary
 
                              www.mrcc.hu
 
                    Release date: February 22, 2020

 ************************ 2021-07-31 18:59:36 *************************
 Executing minp...

 Reading input from MINP...
 
 Input file:
 
#
#TITLE
basis=VDZ-EMSL
uncontract=off
#iface=cfour
calc=CI(8)
mem=72GB
#core=1
core=frozen
itol=18
scftol=13
cctol=5
ccmaxit=999
scfmaxit=9999
scftype=RHF
rohftype=semicanonical
scfiguess=ao
rest=2
charge=+0
mult=1
#symm=1
#occ=3,0,0,0,0,1,2,2/3,0,0,0,0,1,1,1

#refdet=serialno
#1
#2,3

unit=angs
geom=xyz
2

B 0.0000 0.0000 0.0000
N 0.0000 0.0000 1.281

tprint=0.01
verbosity=3
#nstate=4


 
 
 Checking keyword combinations...
 
 Keywords:
 
 active=none
 agrid=ld0006-ld0590
 basis=vdz-emsl
 basis_sm=none
 basopt=off
 bfbasis=none
 bfgsmem=10
 bfgstol=1.0d-3
 bpcompo=0.985
 bpcompv=0.98
 bpdfo=0.985
 bpocc=0.985
 bppdo=0.985
 bppdv=0.98
 bpedo=0.985
 bpedv=0.98
 calc=ci(8)
 ccmaxit=999
 ccprog=mrcc
 ccsdalg=disk
 ccsdmkl=seq
 ccsdrest=off
 ccsdthreads=2
 cctol=5
 charge=+0
 cialg=disk
 ciguess=off
 cmpgrp=auto
 core=frozen
 corembed=off
 csapprox=off
 dboc=off
 dendec=cholesky
 dens=0
 dfalg=lineq
 dfbasis_cor=none
 dfbasis_scf=none
 dfintran=ovirt
 dft=off
 dhexc=adc(2)
 diag=david
 docc=
 domrad=10.d0
 drpaalg=fit
 dual=off
 ecp=auto
 edisp=off
 edisp_embed=off
 embed=off
 epert=none
 eps=0.975
 excrad=0.d0
 excrad_fin=0.000000000D+00
 fmm=off
 fmmord=8
 freq=off
 gauss=spher
 geom=xyz
 gopt=off
 ghost=none
 gtol=7
 grdens=off
 grtol=10
 hamilton=dc
 iface=none
 intalg=auto
 itol=18
 laptol=1.d-2
 lccoporder=trffirst
 lcorthr=normal
 lccrest=off
 lmp2dens=on
 lnoepso=0.d0
 lnoepsv=1e-6
 localcc=off
 localcorrsymm=off
 locintrf=disk
 mact=
 maxact=off
 maxdim=100
 maxex=0
 maxmicroit=100
 mcscfiguess=hf
 mem=72gb
 molden=on
 mpitasks=1
 mulmet=0
 mult=1
 nacto=0
 nactv=0
 naf_cor=off
 naf_scf=off
 nafalg=albe
 naftyp=
 nchol=auto
 ndeps=1e-3
 nstate=1
 nsing=0
 ntrip=0
 occ=
 oniom=off
 oniom_eechg=off
 oniom_pcm=off
 optalg=
 optmaxit=50
 optetol=1e-6
 optex=   0
 optgtol=1e-4
 optstol=1e-3
 orblocc=off
 orbloce=off
 orbloco=off
 orblocv=off
 orblocguess=cholesky
 osveps=1e-3
 ovirt=off
 ovltol=1e-7
 ovosnorb=80.0
 pcm=off
 popul=off
 pressure=100000
 pssp=off
 ptfreq=0.0
 ptthreads=2
 qscf=off
 qmmm=off
 redcost_exc=off
 redcost_tddft=off
 refdet=none
 rest=2
 rgrid=log3
 rohfcore=semicanonical
 rohftype=semicanonical
 scfalg=auto
 scfdamp=off
 scfdiis=on
 scfdiis_end=9999
 scfdiis_start=1
 scfdiis_step=1
 scfdtol=14
 scfext=10
 scfguessdens=
 scfiguess=ao
 scflshift=off
 scfmaxit=9999
 scftype=rhf
 scftol=13
 scspe=1.d0
 scsph=1.d0
 scsps=1.2d0
 scspt=0.33333333333333
 scspv=1.d0
 spairtol=1e-4
 subminp=top
 symm=
 talg=occ
 temp=298.15
 test=off
 theodore=off
 tlmo=0.999
 tpao=0.94
 tprint=0.01
 uncontract=off
 unit=angs
 usedisk=2
 verbosity=3
 wpairtol=0.100000000E-05

 ************************ 2021-07-31 18:59:36 *************************
 Executing integ...

 Allocation of 72.0 Gbytes of memory...
 
 
 Number of atoms:                  2
 Charge:                           0
 Number of electrons:             12
 Number of core electrons:         4
 Spin multiplicity:                1
 
                 Cartesian coordinates [bohr]      Atomic mass [AMU]  Z
   1  B     0.00000000    0.00000000    0.00000000    11.009305       5
   2  N     0.00000000    0.00000000    2.42073917    14.003074       7
 
 This molecule is linear.
 
 Rotational constants [cm-1]: 
      1.666747998989
 
 Point group: Cxv 
 Computational point group: C2v 
 
 Cartesian coordinates in standard orientation [bohr]
   1  B     0.00000000    0.00000000   -1.35524050
   2  N     0.00000000    0.00000000    1.06549866
 
 Nuclear repulsion energy [au]:         14.458393734153
 
 
 Basis set information:
 
 Maximum angular momentum: d
 Maximum number of contracted Gaussians:    3
 Maximum number of primitive Gaussians:     9
 Spherical harmonic GTOs are used.
 
    1  B  vdz-emsl [ 9s 4p 1d | 3s 2p 1d ]
    2  N  vdz-emsl [ 9s 4p 1d | 3s 2p 1d ]
 
 Basis functions:
            1             2             3             4             5             6             7             8             9            10
    0    1B1s          1B2s          1B3s          1B1pz         1B1py         1B1px         1B2pz         1B2py         1B2px         1B1d-2    
    1    1B1d-1        1B1d0         1B1d+1        1B1d+2        2N1s          2N2s          2N3s          2N1pz         2N1py         2N1px     
    2    2N2pz         2N2py         2N2px         2N1d-2        2N1d-1        2N1d0         2N1d+1        2N1d+2    
 
 Maximum number of basis functions per shell:    6
 Total number of basis functions:     28
 
 
 Character table for point group C2v:
 
          E  C2  Qh  Qv  
    A1    1   1   1   1
    B1    1  -1   1  -1
    B2    1  -1  -1   1
    A2    1   1  -1  -1
 
 Number of basis functions per irrep:
    A1     14
    B1      6
    B2      6
    A2      2
 
 
 Calculation of overlap integrals...
 CPU time [min]:     0.086                   Wall time [min]:     0.170
 
 Calculation of the square root of the overlap matrix...
 Minimum eigenvalue of the overlap matrix: 0.126997E-01
 CPU time [min]:     0.146                   Wall time [min]:     0.228
 
 Calculation of kinetic energy integrals...
 CPU time [min]:     0.146                   Wall time [min]:     0.228
 Calculation of nuclear attraction integrals...
 CPU time [min]:     0.146                   Wall time [min]:     0.228
 
 Calculation of prescreening integrals...
 CPU time [min]:     0.152                   Wall time [min]:     0.228
 
 Calculation of two-electron integrals...
   1% done.
  14% done.
  46% done.
 100% done.
 CPU time [min]:     0.178                   Wall time [min]:     0.230

 ************************ 2021-07-31 18:59:51 *************************
 Executing scf...

 @scfsetup: integrals taken from disk
            mrcc/integ binary format
 @scfsetup: calc on blockdiagonal matrices
            using symmetry adapted basis
 @scfsetup: diis switched on
 @scfsetup: number of steps to extrapolate from  10
 @scfsetup: tolerance in energy deviation    0.100000E-12
            tolerance in density deviation    0.100000E-13
 @scfsetup: maximum number of iterations:9999
 @scfsetup: restricted closed shell hf calc
 @scfsetup: starting scf from diagonal ao guess
 @scfsetup: occupation set:
            from initial orbitals
 @scfsetup: diis runs from iteration:   1
 @scfsetup: diis runs to iteration:9999
 @scfsetup: diis runs in every iteration
 Allocation of 72.0 Gbytes of memory...
 ======================================================================
 ITERATION STEP   1
 CPU time [min]:     0.004                   Wall time [min]:     0.004
 
 Gradient norm:      0.0000E+00
 RMS of difference density:                            0.15036268485290
 Gap [au]:  0.17684073
 ALPHA OCC:   4   1   1   0
 BETA  OCC:   4   1   1   0
 
 ***HARTREE-FOCK ENERGY IN STEP   1 IS     -78.3916188132671152 [AU]
 ======================================================================
 ITERATION STEP   2
 CPU time [min]:     0.005                   Wall time [min]:     0.007
 
 Gradient norm:      0.0000E+00
 DIIS is running in this iteration step.
 RMS of [F,P]:                                         0.05838978207894
 RMS of difference density:                            0.12345853989141
 Gap [au]:  0.17535360
 ALPHA OCC:   4   1   1   0
 BETA  OCC:   4   1   1   0
 
 ***HARTREE-FOCK ENERGY IN STEP   2 IS     -78.7272367429890494 [AU]
 ======================================================================
 ITERATION STEP   3
 CPU time [min]:     0.005                   Wall time [min]:     0.008
 
 Gradient norm:      0.0000E+00
 DIIS is running in this iteration step.
 RMS of [F,P]:                                         0.07948161821339
 RMS of difference density:                            0.05986820949992
 Gap [au]:  0.29511137
 ALPHA OCC:   4   1   1   0
 BETA  OCC:   4   1   1   0
 
 ***HARTREE-FOCK ENERGY IN STEP   3 IS     -78.6517069495134251 [AU]
 ======================================================================
 ITERATION STEP   4
 CPU time [min]:     0.006                   Wall time [min]:     0.009
 
 Gradient norm:      0.0000E+00
 DIIS is running in this iteration step.
 RMS of [F,P]:                                         0.01334043877086
 RMS of difference density:                            0.01257298530062
 Gap [au]:  0.32766978
 ALPHA OCC:   4   1   1   0
 BETA  OCC:   4   1   1   0
 
 ***HARTREE-FOCK ENERGY IN STEP   4 IS     -78.8805215493619727 [AU]
 ======================================================================
 ITERATION STEP   5
 CPU time [min]:     0.006                   Wall time [min]:     0.009
 
 Gradient norm:      0.0000E+00
 DIIS is running in this iteration step.
 RMS of [F,P]:                                         0.00091411004199
 RMS of difference density:                            0.00209114978013
 Gap [au]:  0.32662356
 ALPHA OCC:   4   1   1   0
 BETA  OCC:   4   1   1   0
 
 ***HARTREE-FOCK ENERGY IN STEP   5 IS     -78.8879824877947016 [AU]
 ======================================================================
 ITERATION STEP   6
 CPU time [min]:     0.007                   Wall time [min]:     0.012
 
 Gradient norm:      0.0000E+00
 DIIS is running in this iteration step.
 RMS of [F,P]:                                         0.00071475350104
 RMS of difference density:                            0.00184496850540
 Gap [au]:  0.32450711
 ALPHA OCC:   4   1   1   0
 BETA  OCC:   4   1   1   0
 
 ***HARTREE-FOCK ENERGY IN STEP   6 IS     -78.8881212802708660 [AU]
 ======================================================================
 ITERATION STEP   7
 CPU time [min]:     0.007                   Wall time [min]:     0.013
 
 Gradient norm:      0.0000E+00
 DIIS is running in this iteration step.
 RMS of [F,P]:                                         0.00039862058804
 RMS of difference density:                            0.00316766174837
 Gap [au]:  0.32202839
 ALPHA OCC:   4   1   1   0
 BETA  OCC:   4   1   1   0
 
 ***HARTREE-FOCK ENERGY IN STEP   7 IS     -78.8882208448083304 [AU]
 ======================================================================
 ITERATION STEP   8
 CPU time [min]:     0.008                   Wall time [min]:     0.013
 
 Gradient norm:      0.0000E+00
 DIIS is running in this iteration step.
 RMS of [F,P]:                                         0.00015440152971
 RMS of difference density:                            0.00189336034081
 Gap [au]:  0.32061839
 ALPHA OCC:   4   1   1   0
 BETA  OCC:   4   1   1   0
 
 ***HARTREE-FOCK ENERGY IN STEP   8 IS     -78.8883138896655680 [AU]
 ======================================================================
 ITERATION STEP   9
 CPU time [min]:     0.008                   Wall time [min]:     0.014
 
 Gradient norm:      0.0000E+00
 DIIS is running in this iteration step.
 RMS of [F,P]:                                         0.00003296690659
 RMS of difference density:                            0.00024441627478
 Gap [au]:  0.32038525
 ALPHA OCC:   4   1   1   0
 BETA  OCC:   4   1   1   0
 
 ***HARTREE-FOCK ENERGY IN STEP   9 IS     -78.8883313420802210 [AU]
 ======================================================================
 ITERATION STEP  10
 CPU time [min]:     0.009                   Wall time [min]:     0.014
 
 Gradient norm:      0.0000E+00
 DIIS is running in this iteration step.
 RMS of [F,P]:                                         0.00000225696725
 RMS of difference density:                            0.00001546399608
 Gap [au]:  0.32038465
 ALPHA OCC:   4   1   1   0
 BETA  OCC:   4   1   1   0
 
 ***HARTREE-FOCK ENERGY IN STEP  10 IS     -78.8883315777808178 [AU]
 ======================================================================
 ITERATION STEP  11
 CPU time [min]:     0.009                   Wall time [min]:     0.015
 
 Gradient norm:      0.0000E+00
 DIIS is running in this iteration step.
 RMS of [F,P]:                                         0.00000068227277
 RMS of difference density:                            0.00000327328455
 Gap [au]:  0.32038730
 ALPHA OCC:   4   1   1   0
 BETA  OCC:   4   1   1   0
 
 ***HARTREE-FOCK ENERGY IN STEP  11 IS     -78.8883315783421324 [AU]
 ======================================================================
 ITERATION STEP  12
 CPU time [min]:     0.010                   Wall time [min]:     0.015
 
 Gradient norm:      0.0000E+00
 DIIS is running in this iteration step.
 RMS of [F,P]:                                         0.00000005285549
 RMS of difference density:                            0.00000024489214
 Gap [au]:  0.32038790
 ALPHA OCC:   4   1   1   0
 BETA  OCC:   4   1   1   0
 
 ***HARTREE-FOCK ENERGY IN STEP  12 IS     -78.8883315783962615 [AU]
 ======================================================================
 ITERATION STEP  13
 CPU time [min]:     0.010                   Wall time [min]:     0.016
 
 Gradient norm:      0.0000E+00
 DIIS is running in this iteration step.
 RMS of [F,P]:                                         0.00000000705346
 RMS of difference density:                            0.00000002141298
 Gap [au]:  0.32038792
 ALPHA OCC:   4   1   1   0
 BETA  OCC:   4   1   1   0
 
 ***HARTREE-FOCK ENERGY IN STEP  13 IS     -78.8883315783964179 [AU]
 ======================================================================
 ITERATION STEP  14
 CPU time [min]:     0.011                   Wall time [min]:     0.016
 
 Gradient norm:      0.0000E+00
 DIIS is running in this iteration step.
 RMS of [F,P]:                                         0.00000000112467
 RMS of difference density:                            0.00000000282507
 Gap [au]:  0.32038791
 ALPHA OCC:   4   1   1   0
 BETA  OCC:   4   1   1   0
 
 ***HARTREE-FOCK ENERGY IN STEP  14 IS     -78.8883315783964321 [AU]
 ======================================================================
 ITERATION STEP  15
 CPU time [min]:     0.011                   Wall time [min]:     0.017
 
 Gradient norm:      0.0000E+00
 DIIS is running in this iteration step.
 RMS of [F,P]:                                         0.00000000015448
 RMS of difference density:                            0.00000000033388
 Gap [au]:  0.32038791
 ALPHA OCC:   4   1   1   0
 BETA  OCC:   4   1   1   0
 
 ***HARTREE-FOCK ENERGY IN STEP  15 IS     -78.8883315783965173 [AU]
 ======================================================================
 ITERATION STEP  16
 CPU time [min]:     0.012                   Wall time [min]:     0.017
 
 Gradient norm:      0.0000E+00
 DIIS is running in this iteration step.
 RMS of [F,P]:                                         0.00000000006304
 RMS of difference density:                            0.00000000023706
 Gap [au]:  0.32038791
 ALPHA OCC:   4   1   1   0
 BETA  OCC:   4   1   1   0
 
 ***HARTREE-FOCK ENERGY IN STEP  16 IS     -78.8883315783965031 [AU]
 ======================================================================
 ITERATION STEP  17
 CPU time [min]:     0.012                   Wall time [min]:     0.018
 
 Gradient norm:      0.0000E+00
 DIIS is running in this iteration step.
 RMS of [F,P]:                                         0.00000000000528
 RMS of difference density:                            0.00000000001594
 Gap [au]:  0.32038791
 ALPHA OCC:   4   1   1   0
 BETA  OCC:   4   1   1   0
 
 ***HARTREE-FOCK ENERGY IN STEP  17 IS     -78.8883315783964747 [AU]
 ======================================================================
 ITERATION STEP  18
 CPU time [min]:     0.013                   Wall time [min]:     0.018
 
 Gradient norm:      0.0000E+00
 DIIS is running in this iteration step.
 RMS of [F,P]:                                         0.00000000000098
 RMS of difference density:                            0.00000000000683
 Gap [au]:  0.32038791
 ALPHA OCC:   4   1   1   0
 BETA  OCC:   4   1   1   0
 
 ***HARTREE-FOCK ENERGY IN STEP  18 IS     -78.8883315783964747 [AU]
 ======================================================================
 ITERATION STEP  19
 CPU time [min]:     0.013                   Wall time [min]:     0.019
 
 Gradient norm:      0.0000E+00
 DIIS is running in this iteration step.
 RMS of [F,P]:                                         0.00000000000023
 RMS of difference density:                            0.00000000000123
 Gap [au]:  0.32038791
 ALPHA OCC:   4   1   1   0
 BETA  OCC:   4   1   1   0
 
 ***HARTREE-FOCK ENERGY IN STEP  19 IS     -78.8883315783964179 [AU]
 ======================================================================
 ITERATION STEP  20
 CPU time [min]:     0.014                   Wall time [min]:     0.019
 
 Gradient norm:      0.0000E+00
 DIIS is running in this iteration step.
 RMS of [F,P]:                                         0.00000000000007
 RMS of difference density:                            0.00000000000068
 Gap [au]:  0.32038791
 ALPHA OCC:   4   1   1   0
 BETA  OCC:   4   1   1   0
 
 ***HARTREE-FOCK ENERGY IN STEP  20 IS     -78.8883315783964605 [AU]
 ======================================================================
 ITERATION STEP  21
 CPU time [min]:     0.014                   Wall time [min]:     0.020
 
 Gradient norm:      0.0000E+00
 DIIS is running in this iteration step.
 RMS of [F,P]:                                         0.00000000000002
 RMS of difference density:                            0.00000000000018
 Gap [au]:  0.32038791
 ALPHA OCC:   4   1   1   0
 BETA  OCC:   4   1   1   0
 
 ***HARTREE-FOCK ENERGY IN STEP  21 IS     -78.8883315783965315 [AU]
 ======================================================================
 ITERATION STEP  22
 CPU time [min]:     0.015                   Wall time [min]:     0.021
 
 Gradient norm:      0.0000E+00
 DIIS is running in this iteration step.
 RMS of [F,P]:                                         0.00000000000000
 RMS of difference density:                            0.00000000000001
 Gap [au]:  0.32038791
 ALPHA OCC:   4   1   1   0
 BETA  OCC:   4   1   1   0
 
 ***HARTREE-FOCK ENERGY IN STEP  22 IS     -78.8883315783964889 [AU]
 ======================================================================
 ITERATION STEP  23
 CPU time [min]:     0.015                   Wall time [min]:     0.021
 
 Gradient norm:      0.0000E+00
 DIIS is running in this iteration step.
 RMS of [F,P]:                                         0.00000000000000
 RMS of difference density:                            0.00000000000000
 Gap [au]:  0.32038791
 ALPHA OCC:   4   1   1   0
 BETA  OCC:   4   1   1   0
 
 ***HARTREE-FOCK ENERGY IN STEP  23 IS     -78.8883315783964889 [AU]
 ======================================================================
 
 SUCCESS...
 THE SCF ITERATION HAS CONVERGED!
 
                   A1  B1  B2  A2  
 FINAL ALPHA OCC:   4   1   1   0
 FINAL BETA  OCC:   4   1   1   0
 
 ***FINAL HARTREE-FOCK ENERGY:    -78.8883315783964889 [AU]
 
 Orbital energies [au]:
      Irrep         Alpha          Beta
    1   A1       -15.605313     -15.605313
    2   A1        -7.726675      -7.726675
    3   A1        -1.072872      -1.072872
    4   A1        -0.493970      -0.493970
    5   B2        -0.419677      -0.419677
    6   B1        -0.419677      -0.419677
 
    7   A1        -0.099289      -0.099289
    8   B2         0.149533       0.149533
    9   B1         0.149533       0.149533
   10   A1         0.258832       0.258832
   11   B1         0.443910       0.443910
   12   B2         0.443910       0.443910
   13   A1         0.457197       0.457197
   14   A1         0.793041       0.793041
   15   A1         0.860761       0.860761
   16   A2         0.860761       0.860761
   17   A1         0.910537       0.910537
   18   B1         0.995131       0.995131
   19   B2         0.995131       0.995131
   20   B1         1.118730       1.118730
   21   B2         1.118730       1.118730
   22   A1         1.474939       1.474939
   23   A1         1.742514       1.742514
   24   A2         2.165155       2.165155
   25   A1         2.165155       2.165155
   26   B1         2.512455       2.512455
   27   B2         2.512455       2.512455
   28   A1         2.936322       2.936322
 
 RETURNING FROM SCF ALGORITHM
 ======================================================================

 ************************ 2021-07-31 18:59:57 *************************
 Executing ovirt...

 ovirt, the routine of orbital optimization and integral transformation 
Sat Jul 31 18:59:57 EDT 2021
 memory =                  73728  Mb            9663676416  8 byte word
 mrccboot = T
 scftype  = rhf  
 localcc  = off 
 core     = frozen
 ovirt    = off  
 ccprog   = mrcc
 dfnbasis =                      0
 dfbasis_cor =none                
 lmp2dens = on 
 dens =                      0
 verblev =                      3
 task     =                      4
 epsilon =   0.975000000000000     
 lmp2= on 
 localNO  =  F
 localMP2 =  F
 localMP2_TEST =  F
 LMP2_shortcut =  F
 FOCKTR   =  T
 Allocated memory:                   73728  Mb
 onbasis=                    28
 RHF calculation! 
 integral transforamtion: AOs ------ MOs
 # of basis functions, # of int. blocks    28     1
100 % 
 second part
100 %
 integral transformation is completed! 
CPU and WC time           0.10          17.79     AOs -> MOs 
 occupied and 
     1 -1.0728722153
     2 -0.4939699881
     3 -0.4196765061
     4 -0.4196765061
               virtual energies 
     5 -0.0992885944
     6  0.1495326996
     7  0.1495326996
     8  0.2588324124
     9  0.4439099857
    10  0.4439099857
    11  0.4571966497
    12  0.7930409092
    13  0.8607613127
    14  0.8607613127
    15  0.9105373731
    16  0.9951310978
    17  0.9951310978
    18  1.1187303750
    19  1.1187303750
    20  1.4749385878
    21  1.7425137600
    22  2.1651553977
    23  2.1651553977
    24  2.5124553853
    25  2.5124553853
    26  2.9363219672
 inttol =   1.000000000000000E-018   18.0000000000000     
Integrals are written to fort.55
Sat Jul 31 19:00:15 EDT 2021
  ovirt terminated normally 

 ************************ 2021-07-31 19:00:15 *************************
 Executing goldstone...

 Generation of CI equations in terms of H and C...
 Generation of antisymmetrized Goldstone diagrams...
 Number of diagrams in T^1 equations:     8
 Number of diagrams in T^2 equations:    12
 Number of diagrams in T^3 equations:    12
 Number of diagrams in T^4 equations:    12
 Number of diagrams in T^5 equations:    12
 Number of diagrams in T^6 equations:    12
 Number of diagrams in T^7 equations:    11
 Number of diagrams in T^8 equations:     8
 Translation of diagrams to factorized equations...
 Optimizing intermediate calculation...
 Number of floating-point operations per iteration step:   2.2746E+12
 Probable CPU time per iteration step (hours):     22.75
 Required memory (Mbytes):     585.6
 Number of intermediates:                                  98
 Number of intermediates to be stored:                     11
 Length of intermediate file (Mbytes):       1.7

 ************************ 2021-07-31 19:00:26 *************************
 Executing xmrcc...

 **********************************************************************
 CI(                     8 ) calculation 
 
 
 Allocation of 585.6 Mbytes of memory...
 Number of spinorbitals:                    52
 Number of alpha electrons:                        4
 Number of beta electrons:                         4
 Spin multiplicity:                     1
 z-component of spin:  0.0
 Spatial symmetry:                      1
 Convergence criterion:  1.0E-05
 Construction of occupation graphs...
 Number of                     0 -fold excitations:                      1
 Number of                     1 -fold excitations:                     60
 Number of                     2 -fold excitations:                   2766
 Number of                     3 -fold excitations:                  64064
 Number of                     4 -fold excitations:                 755150
 Number of                     5 -fold excitations:                4592420
 Number of                     6 -fold excitations:               14556010
 Number of                     7 -fold excitations:               22530200
 Number of                     8 -fold excitations:               13383125
 Total number of configurations:               55883796
 Calculation of coupling coefficients...
 Length of intermediate file (Mbytes):       1.4
 
 ======================================================================
 
 Memory requirements /Mbyte/: 
               Minimal        Optimal
 Real*8:       1736.2687      1736.2687
 Integer:         2.5515
 Total:        1738.8201      1738.8201
 

 ************************ 2021-07-31 19:00:26 *************************
 Executing goldstone...

 Generation of CI equations in terms of H and C...
 Generation of antisymmetrized Goldstone diagrams...
 Number of diagrams in T^1 equations:     7
 Number of diagrams in T^2 equations:     8
 Translation of diagrams to factorized equations...
 Optimizing intermediate calculation...
 Number of floating-point operations per iteration step:   2.2532E+06
 Probable CPU time per iteration step (hours):      0.00
 Required memory (Mbytes):      32.1
 Number of intermediates:                                  26
 Number of intermediates to be stored:                     11
 Length of intermediate file (Mbytes):       1.7

 ************************ 2021-07-31 19:00:30 *************************
 Executing xmrcc...

 **********************************************************************
 CI(                     2 ) calculation 
 
 
 Allocation of 100.0 Mbytes of memory...
 Number of spinorbitals:                    52
 Number of alpha electrons:                        4
 Number of beta electrons:                         4
 Spin multiplicity:                     1
 z-component of spin:  0.0
 Spatial symmetry:                      1
 Convergence criterion:  1.0E-05
 Construction of occupation graphs...
 Number of                     0 -fold excitations:                      1
 Number of                     1 -fold excitations:                     60
 Number of                     2 -fold excitations:                   2766
 Total number of configurations:                   2827
 Calculation of coupling coefficients...
 Length of intermediate file (Mbytes):       1.4
 
 ======================================================================
 
 Memory requirements /Mbyte/: 
               Minimal        Optimal
 Real*8:          0.7490         3.7545
 Integer:         0.2931
 Total:           1.0421         4.0476
 

 ************************ 2021-07-31 19:00:31 *************************
 Executing mrcc...

 **********************************************************************
 CISD calculation                                                       
 
 
 OpenMP parallel version is running.
 Number of CPU cores:  16
 Allocation of    3.8 Mbytes of memory...
 Number of spinorbitals:  52
 Number of alpha electrons:  4
 Number of beta  electrons:  4
 Spin multiplicity: 1
 z-component of spin:  0.0
 Spatial symmetry: 1
 Convergence criterion:  1.0E-05
 Construction of occupation graphs...
 Number of 0-fold excitations: 1
 Number of 1-fold excitations: 60
 Number of 2-fold excitations: 2766
 Total number of determinants: 2827
 Calculation of coupling coefficients...
 Initial cluster amplitudes are generated.
 Length of intermediate file (Mbytes):       1.4
 Reading integral list from unit 55...
 Sorting integrals...
 Calculation of diagonal elements of Hamiltonian...
 
 Starting CI iteration for root                      1 ...
 ======================================================================
 Norm of residual vector:     0.83747886      Convergence:   1.00000000
 CPU time [min]:     0.159                   Wall time [min]:     0.012
 
 Iteration  1  CI energy:   -78.88833158  Energy decrease:   0.0000E+00
 ======================================================================
 Norm of residual vector:     0.31133313      Convergence:   0.24181034
 CPU time [min]:     0.170                   Wall time [min]:     0.012
 
 Iteration  2  CI energy:   -79.09700298  Energy decrease:   0.20867140
 ======================================================================
 Norm of residual vector:     0.16046497      Convergence:   0.09920679
 CPU time [min]:     0.180                   Wall time [min]:     0.013
 
 Iteration  3  CI energy:   -79.12805615  Energy decrease:   0.03105317
 ======================================================================
 Norm of residual vector:     0.10862896      Convergence:   0.06090045
 CPU time [min]:     0.189                   Wall time [min]:     0.013
 
 Iteration  4  CI energy:   -79.13785000  Energy decrease:   0.00979385
 ======================================================================
 Norm of residual vector:     0.08192878      Convergence:   0.04344929
 CPU time [min]:     0.199                   Wall time [min]:     0.014
 
 Iteration  5  CI energy:   -79.14257563  Energy decrease:   0.00472563
 ======================================================================
 Norm of residual vector:     0.05857987      Convergence:   0.03267374
 CPU time [min]:     0.209                   Wall time [min]:     0.015
 
 Iteration  6  CI energy:   -79.14525459  Energy decrease:   0.00267896
 ======================================================================
 Norm of residual vector:     0.04165332      Convergence:   0.02383315
 CPU time [min]:     0.219                   Wall time [min]:     0.015
 
 Iteration  7  CI energy:   -79.14665117  Energy decrease:   0.00139658
 ======================================================================
 Norm of residual vector:     0.02920356      Convergence:   0.01779426
 CPU time [min]:     0.229                   Wall time [min]:     0.016
 
 Iteration  8  CI energy:   -79.14739243  Energy decrease:   0.00074126
 ======================================================================
 Norm of residual vector:     0.02175900      Convergence:   0.01321548
 CPU time [min]:     0.239                   Wall time [min]:     0.017
 
 Iteration  9  CI energy:   -79.14777835  Energy decrease:   0.00038592
 ======================================================================
 Norm of residual vector:     0.01706545      Convergence:   0.01098988
 CPU time [min]:     0.250                   Wall time [min]:     0.017
 
 Iteration 10  CI energy:   -79.14801747  Energy decrease:   0.00023911
 ======================================================================
 Norm of residual vector:     0.01239822      Convergence:   0.00806020
 CPU time [min]:     0.260                   Wall time [min]:     0.018
 
 Iteration 11  CI energy:   -79.14815500  Energy decrease:   0.00013754
 ======================================================================
 Norm of residual vector:     0.00814626      Convergence:   0.00551190
 CPU time [min]:     0.271                   Wall time [min]:     0.019
 
 Iteration 12  CI energy:   -79.14822333  Energy decrease:   0.00006833
 ======================================================================
 Norm of residual vector:     0.00577021      Convergence:   0.00353017
 CPU time [min]:     0.282                   Wall time [min]:     0.019
 
 Iteration 13  CI energy:   -79.14825208  Energy decrease:   0.00002875
 ======================================================================
 Norm of residual vector:     0.00351749      Convergence:   0.00246517
 CPU time [min]:     0.293                   Wall time [min]:     0.020
 
 Iteration 14  CI energy:   -79.14826630  Energy decrease:   0.00001422
 ======================================================================
 Norm of residual vector:     0.00201731      Convergence:   0.00142225
 CPU time [min]:     0.304                   Wall time [min]:     0.021
 
 Iteration 15  CI energy:   -79.14827131  Energy decrease:   0.00000500
 ======================================================================
 Norm of residual vector:     0.00117929      Convergence:   0.00078374
 CPU time [min]:     0.315                   Wall time [min]:     0.021
 
 Iteration 16  CI energy:   -79.14827289  Energy decrease:   0.00000158
 ======================================================================
 Norm of residual vector:     0.0000E+00      Convergence:   4.5907E-04
 CPU time [min]:     0.325                   Wall time [min]:     0.022
 
 Iteration 17  CI energy:   -79.14827343  Energy decrease:   0.00000054
 ======================================================================
 
 Iteration has converged in 17 steps.
 
 Final results:
 Total CISD energy [au]:             -79.148273428743
 
 Dominant CI coefficients
 Printing threshold:  1.00E-02
 
   -0.924277  Reference determinant                                     
   -0.026574  3b -> 7b                                                  
    0.089424  4b -> 7b                                                  
   -0.020338  4b -> 13b                                                 
   -0.013325  4b -> 14b                                                 
   -0.019370  6b -> 20b                                                 
   -0.019370  5b -> 21b                                                 
   -0.026574  3a -> 7a                                                  
    0.089424  4a -> 7a                                                  
   -0.020338  4a -> 13a                                                 
   -0.013325  4a -> 14a                                                 
   -0.019370  6a -> 20a                                                 
   -0.019370  5a -> 21a                                                 
   -0.024551  4b 6b -> 7b 9b                                            
   -0.024551  4b 5b -> 7b 8b                                            
    0.022946  5b 6b -> 8b 9b                                            
   -0.014498  5b 6b -> 11b 12b                                          
   -0.013120  5b 6b -> 15b 16b                                          
   -0.011557  5b 6b -> 20b 21b                                          
   -0.010917  5b 6b -> 24b 25b                                          
    0.014158  3a 3b -> 7a 7b                                            
    0.010544  3a 3b -> 14a 14b                                          
    0.012492  3a 3b -> 23a 23b                                          
    0.015760  4a 3b -> 7a 7b                                            
   -0.012310  4a 3b -> 7a 10b                                           
    0.015760  3a 4b -> 7a 7b                                            
   -0.012310  3a 4b -> 10a 7b                                           
    0.137994  4a 4b -> 7a 7b                                            
   -0.022839  4a 4b -> 13a 7b                                           
    0.027797  4a 4b -> 14a 7b                                           
   -0.018525  4a 4b -> 22a 7b                                           
   -0.022839  4a 4b -> 7a 13b                                           
    0.027797  4a 4b -> 7a 14b                                           
    0.013329  4a 4b -> 14a 14b                                          
    0.014335  4a 4b -> 17a 17b                                          
   -0.018525  4a 4b -> 7a 22b                                           
    0.014206  4a 4b -> 22a 22b                                          
    0.032399  6a 6b -> 7a 7b                                            
    0.010282  6a 6b -> 15a 15b                                          
    0.032399  5a 5b -> 7a 7b                                            
    0.010282  5a 5b -> 15a 15b                                          
    0.029408  4a 4b -> 9a 9b                                            
    0.015031  4a 4b -> 11a 9b                                           
    0.015031  4a 4b -> 9a 11b                                           
    0.010932  4a 4b -> 11a 11b                                          
    0.069963  6a 6b -> 9a 9b                                            
    0.026028  6a 6b -> 11a 9b                                           
   -0.024906  6a 6b -> 20a 9b                                           
    0.026028  6a 6b -> 9a 11b                                           
    0.025172  6a 6b -> 11a 11b                                          
    0.011282  6a 6b -> 18a 18b                                          
   -0.024906  6a 6b -> 9a 20b                                           
    0.023820  6a 6b -> 20a 20b                                          
    0.029408  4a 4b -> 8a 8b                                            
    0.015031  4a 4b -> 12a 8b                                           
    0.015031  4a 4b -> 8a 12b                                           
    0.010932  4a 4b -> 12a 12b                                          
    0.069963  5a 5b -> 8a 8b                                            
    0.026028  5a 5b -> 12a 8b                                           
   -0.024906  5a 5b -> 21a 8b                                           
    0.026028  5a 5b -> 8a 12b                                           
    0.025172  5a 5b -> 12a 12b                                          
    0.011282  5a 5b -> 19a 19b                                          
   -0.024906  5a 5b -> 8a 21b                                           
    0.023820  5a 5b -> 21a 21b                                          
    0.010282  6a 6b -> 16a 16b                                          
    0.010282  5a 5b -> 16a 16b                                          
    0.011991  3a 6b -> 10a 9b                                           
   -0.011528  3a 6b -> 14a 9b                                           
    0.012675  3a 6b -> 7a 18b                                           
   -0.011986  3a 6b -> 23a 20b                                          
    0.011247  3a 6b -> 7a 26b                                           
   -0.063357  4a 6b -> 7a 9b                                            
    0.012068  4a 6b -> 13a 9b                                           
   -0.015949  4a 6b -> 14a 9b                                           
   -0.021690  4a 6b -> 7a 11b                                           
    0.011919  4a 6b -> 13a 11b                                          
    0.015130  4a 6b -> 7a 20b                                           
   -0.010099  6a 3b -> 25a 9b                                           
   -0.038803  6a 4b -> 7a 9b                                            
   -0.011494  6a 4b -> 14a 9b                                           
    0.011889  6a 4b -> 15a 9b                                           
   -0.013925  6a 4b -> 7a 11b                                           
   -0.010099  3a 6b -> 9a 25b                                           
   -0.038803  4a 6b -> 9a 7b                                            
   -0.013925  4a 6b -> 11a 7b                                           
   -0.011494  4a 6b -> 9a 14b                                           
    0.011889  4a 6b -> 9a 15b                                           
    0.012675  6a 3b -> 18a 7b                                           
    0.011247  6a 3b -> 26a 7b                                           
    0.011991  6a 3b -> 9a 10b                                           
   -0.011528  6a 3b -> 9a 14b                                           
   -0.011986  6a 3b -> 20a 23b                                          
   -0.063357  6a 4b -> 9a 7b                                            
   -0.021690  6a 4b -> 11a 7b                                           
    0.015130  6a 4b -> 20a 7b                                           
    0.012068  6a 4b -> 9a 13b                                           
    0.011919  6a 4b -> 11a 13b                                          
   -0.015949  6a 4b -> 9a 14b                                           
    0.010099  3a 6b -> 8a 24b                                           
    0.011888  4a 6b -> 8a 16b                                           
    0.010099  6a 3b -> 24a 8b                                           
    0.011888  6a 4b -> 16a 8b                                           
    0.011991  3a 5b -> 10a 8b                                           
   -0.011528  3a 5b -> 14a 8b                                           
    0.012675  3a 5b -> 7a 19b                                           
   -0.011986  3a 5b -> 23a 21b                                          
    0.011247  3a 5b -> 7a 27b                                           
   -0.063357  4a 5b -> 7a 8b                                            
    0.012068  4a 5b -> 13a 8b                                           
   -0.015949  4a 5b -> 14a 8b                                           
   -0.021690  4a 5b -> 7a 12b                                           
    0.011919  4a 5b -> 13a 12b                                          
    0.015130  4a 5b -> 7a 21b                                           
    0.010099  5a 3b -> 25a 8b                                           
   -0.038803  5a 4b -> 7a 8b                                            
   -0.011494  5a 4b -> 14a 8b                                           
   -0.011889  5a 4b -> 15a 8b                                           
   -0.013925  5a 4b -> 7a 12b                                           
    0.010099  3a 5b -> 9a 24b                                           
    0.011888  4a 5b -> 9a 16b                                           
    0.010099  3a 5b -> 8a 25b                                           
   -0.038803  4a 5b -> 8a 7b                                            
   -0.013925  4a 5b -> 12a 7b                                           
   -0.011494  4a 5b -> 8a 14b                                           
   -0.011889  4a 5b -> 8a 15b                                           
    0.012675  5a 3b -> 19a 7b                                           
    0.011247  5a 3b -> 27a 7b                                           
    0.011991  5a 3b -> 8a 10b                                           
   -0.011528  5a 3b -> 8a 14b                                           
   -0.011986  5a 3b -> 21a 23b                                          
   -0.063357  5a 4b -> 8a 7b                                            
   -0.021690  5a 4b -> 12a 7b                                           
    0.015130  5a 4b -> 21a 7b                                           
    0.012068  5a 4b -> 8a 13b                                           
    0.011919  5a 4b -> 12a 13b                                          
   -0.015949  5a 4b -> 8a 14b                                           
    0.010099  5a 3b -> 24a 9b                                           
    0.011888  5a 4b -> 16a 9b                                           
    0.042462  6a 5b -> 9a 8b                                            
    0.015716  6a 5b -> 11a 8b                                           
   -0.015631  6a 5b -> 20a 8b                                           
    0.015716  6a 5b -> 9a 12b                                           
    0.018870  6a 5b -> 11a 12b                                          
   -0.015631  6a 5b -> 9a 21b                                           
    0.016370  6a 5b -> 20a 21b                                          
    0.019515  5a 6b -> 9a 8b                                            
    0.019515  6a 5b -> 8a 9b                                            
    0.042462  5a 6b -> 8a 9b                                            
    0.015716  5a 6b -> 12a 9b                                           
   -0.015631  5a 6b -> 21a 9b                                           
    0.015716  5a 6b -> 8a 11b                                           
    0.018870  5a 6b -> 12a 11b                                          
   -0.015631  5a 6b -> 8a 20b                                           
    0.016370  5a 6b -> 21a 20b                                          
   -0.024551  4a 6a -> 7a 9a                                            
   -0.024551  4a 5a -> 7a 8a                                            
    0.022946  5a 6a -> 8a 9a                                            
   -0.014498  5a 6a -> 11a 12a                                          
   -0.013120  5a 6a -> 15a 16a                                          
   -0.011557  5a 6a -> 20a 21a                                          
   -0.010917  5a 6a -> 24a 25a                                          

 ************************ 2021-07-31 19:00:32 *************************
 Executing goldstone...

 Generation of CI equations in terms of H and C...
 Generation of antisymmetrized Goldstone diagrams...
 Number of diagrams in T^1 equations:     8
 Number of diagrams in T^2 equations:    11
 Number of diagrams in T^3 equations:     8
 Translation of diagrams to factorized equations...
 Optimizing intermediate calculation...
 Number of floating-point operations per iteration step:   1.7334E+08
 Probable CPU time per iteration step (hours):      0.00
 Required memory (Mbytes):      32.1
 Number of intermediates:                                  38
 Number of intermediates to be stored:                     11
 Length of intermediate file (Mbytes):       1.7

 ************************ 2021-07-31 19:00:41 *************************
 Executing xmrcc...

 **********************************************************************
 CI(                     3 ) calculation 
 
 
 Allocation of 100.0 Mbytes of memory...
 Number of spinorbitals:                    52
 Number of alpha electrons:                        4
 Number of beta electrons:                         4
 Spin multiplicity:                     1
 z-component of spin:  0.0
 Spatial symmetry:                      1
 Convergence criterion:  1.0E-05
 Construction of occupation graphs...
 Number of                     0 -fold excitations:                      1
 Number of                     1 -fold excitations:                     60
 Number of                     2 -fold excitations:                   2766
 Number of                     3 -fold excitations:                  64064
 Total number of configurations:                  66891
 Calculation of coupling coefficients...
 Length of intermediate file (Mbytes):       1.4
 
 ======================================================================
 
 Memory requirements /Mbyte/: 
               Minimal        Optimal
 Real*8:          4.4361         7.0078
 Integer:         0.5945
 Total:           5.0306         7.6024
 

 ************************ 2021-07-31 19:00:41 *************************
 Executing mrcc...

 **********************************************************************
 CISDT calculation                                                      
 
 
 OpenMP parallel version is running.
 Number of CPU cores:  16
 Allocation of    7.0 Mbytes of memory...
 Number of spinorbitals:  52
 Number of alpha electrons:  4
 Number of beta  electrons:  4
 Spin multiplicity: 1
 z-component of spin:  0.0
 Spatial symmetry: 1
 Convergence criterion:  1.0E-05
 Construction of occupation graphs...
 Number of 0-fold excitations: 1
 Number of 1-fold excitations: 60
 Number of 2-fold excitations: 2766
 Number of 3-fold excitations: 64064
 Total number of determinants: 66891
 Calculation of coupling coefficients...
 Initial cluster amplitudes are read from unit 16.
 Length of intermediate file (Mbytes):       1.4
 Reading integral list from unit 55...
 Sorting integrals...
 Calculation of diagonal elements of Hamiltonian...
 
 Starting CI iteration for root                      1 ...
 ======================================================================
 Norm of residual vector:     0.23779687      Convergence:   1.00000000
 CPU time [min]:     0.145                   Wall time [min]:     0.010
 
 Iteration  1  CI energy:   -79.14827343  Energy decrease:   0.25994185
 ======================================================================
 Norm of residual vector:     0.09431970      Convergence:   0.06000339
 CPU time [min]:     0.236                   Wall time [min]:     0.016
 
 Iteration  2  CI energy:   -79.16256573  Energy decrease:   0.01429230
 ======================================================================
 Norm of residual vector:     0.05703162      Convergence:   0.02816502
 CPU time [min]:     0.287                   Wall time [min]:     0.019
 
 Iteration  3  CI energy:   -79.16522274  Energy decrease:   0.00265701
 ======================================================================
 Norm of residual vector:     0.04038829      Convergence:   0.01928431
 CPU time [min]:     0.339                   Wall time [min]:     0.022
 
 Iteration  4  CI energy:   -79.16632251  Energy decrease:   0.00109976
 ======================================================================
 Norm of residual vector:     0.03167722      Convergence:   0.01451685
 CPU time [min]:     0.392                   Wall time [min]:     0.026
 
 Iteration  5  CI energy:   -79.16690873  Energy decrease:   0.00058622
 ======================================================================
 Norm of residual vector:     0.02804323      Convergence:   0.01227643
 CPU time [min]:     0.446                   Wall time [min]:     0.029
 
 Iteration  6  CI energy:   -79.16729753  Energy decrease:   0.00038880
 ======================================================================
 Norm of residual vector:     0.02701272      Convergence:   0.01179851
 CPU time [min]:     0.503                   Wall time [min]:     0.033
 
 Iteration  7  CI energy:   -79.16762833  Energy decrease:   0.00033080
 ======================================================================
 Norm of residual vector:     0.02439085      Convergence:   0.01080786
 CPU time [min]:     0.561                   Wall time [min]:     0.036
 
 Iteration  8  CI energy:   -79.16792022  Energy decrease:   0.00029190
 ======================================================================
 Norm of residual vector:     0.02049696      Convergence:   0.00901368
 CPU time [min]:     0.622                   Wall time [min]:     0.040
 
 Iteration  9  CI energy:   -79.16814002  Energy decrease:   0.00021980
 ======================================================================
 Norm of residual vector:     0.01687699      Convergence:   0.00730694
 CPU time [min]:     0.684                   Wall time [min]:     0.044
 
 Iteration 10  CI energy:   -79.16828975  Energy decrease:   0.00014972
 ======================================================================
 Norm of residual vector:     0.01395145      Convergence:   0.00578401
 CPU time [min]:     0.748                   Wall time [min]:     0.048
 
 Iteration 11  CI energy:   -79.16838733  Energy decrease:   0.00009758
 ======================================================================
 Norm of residual vector:     0.01152474      Convergence:   0.00456859
 CPU time [min]:     0.814                   Wall time [min]:     0.052
 
 Iteration 12  CI energy:   -79.16845104  Energy decrease:   0.00006371
 ======================================================================
 Norm of residual vector:     0.00898114      Convergence:   0.00378206
 CPU time [min]:     0.882                   Wall time [min]:     0.056
 
 Iteration 13  CI energy:   -79.16849461  Energy decrease:   0.00004357
 ======================================================================
 Norm of residual vector:     0.00676284      Convergence:   0.00296905
 CPU time [min]:     0.951                   Wall time [min]:     0.061
 
 Iteration 14  CI energy:   -79.16852126  Energy decrease:   0.00002666
 ======================================================================
 Norm of residual vector:     0.00492100      Convergence:   0.00221312
 CPU time [min]:     1.023                   Wall time [min]:     0.065
 
 Iteration 15  CI energy:   -79.16853622  Energy decrease:   0.00001496
 ======================================================================
 Norm of residual vector:     0.00334939      Convergence:   0.00146389
 CPU time [min]:     1.096                   Wall time [min]:     0.070
 
 Iteration 16  CI energy:   -79.16854342  Energy decrease:   0.00000720
 ======================================================================
 Norm of residual vector:     0.00239638      Convergence:   0.00106146
 CPU time [min]:     1.171                   Wall time [min]:     0.074
 
 Iteration 17  CI energy:   -79.16854698  Energy decrease:   0.00000355
 ======================================================================
 Norm of residual vector:     0.00176759      Convergence:   0.00078284
 CPU time [min]:     1.249                   Wall time [min]:     0.079
 
 Iteration 18  CI energy:   -79.16854885  Energy decrease:   0.00000188
 ======================================================================
 Norm of residual vector:     0.00117326      Convergence:   0.00054616
 CPU time [min]:     1.327                   Wall time [min]:     0.084
 
 Iteration 19  CI energy:   -79.16854982  Energy decrease:   0.00000097
 ======================================================================
 Norm of residual vector:     0.0000E+00      Convergence:   3.4772E-04
 CPU time [min]:     1.408                   Wall time [min]:     0.089
 
 Iteration 20  CI energy:   -79.16855023  Energy decrease:   0.00000041
 ======================================================================
 
 Iteration has converged in 20 steps.
 
 Final results:
 Total CISDT energy [au]:            -79.168550226923
 
 Dominant CI coefficients
 Printing threshold:  1.00E-02
 
   -0.884435  Reference determinant                                     
   -0.034111  3b -> 7b                                                  
    0.150701  4b -> 7b                                                  
   -0.027539  4b -> 13b                                                 
   -0.014606  4b -> 14b                                                 
    0.012698  6b -> 9b                                                  
   -0.018874  6b -> 20b                                                 
    0.012698  5b -> 8b                                                  
   -0.018874  5b -> 21b                                                 
   -0.034111  3a -> 7a                                                  
    0.150701  4a -> 7a                                                  
   -0.027539  4a -> 13a                                                 
   -0.014606  4a -> 14a                                                 
    0.012698  6a -> 9a                                                  
   -0.018874  6a -> 20a                                                 
    0.012698  5a -> 8a                                                  
   -0.018874  5a -> 21a                                                 
   -0.025538  4b 6b -> 7b 9b                                            
   -0.010895  4b 6b -> 11b 13b                                          
   -0.025538  4b 5b -> 7b 8b                                            
   -0.010895  4b 5b -> 12b 13b                                          
    0.023282  5b 6b -> 8b 9b                                            
   -0.015632  5b 6b -> 11b 12b                                          
   -0.013296  5b 6b -> 15b 16b                                          
   -0.012047  5b 6b -> 20b 21b                                          
   -0.011110  5b 6b -> 24b 25b                                          
    0.013845  3a 3b -> 7a 7b                                            
    0.010196  3a 3b -> 14a 14b                                          
    0.012305  3a 3b -> 23a 23b                                          
    0.012682  4a 3b -> 7a 7b                                            
    0.010552  4a 3b -> 22a 7b                                           
   -0.012039  4a 3b -> 7a 10b                                           
    0.012682  3a 4b -> 7a 7b                                            
   -0.012039  3a 4b -> 10a 7b                                           
    0.010552  3a 4b -> 7a 22b                                           
    0.197638  4a 4b -> 7a 7b                                            
   -0.031559  4a 4b -> 13a 7b                                           
    0.028281  4a 4b -> 14a 7b                                           
   -0.018967  4a 4b -> 22a 7b                                           
   -0.031559  4a 4b -> 7a 13b                                           
    0.010169  4a 4b -> 13a 13b                                          
    0.028281  4a 4b -> 7a 14b                                           
    0.011847  4a 4b -> 14a 14b                                          
    0.012083  4a 4b -> 17a 17b                                          
   -0.018967  4a 4b -> 7a 22b                                           
    0.012086  4a 4b -> 22a 22b                                          
    0.023307  6a 6b -> 7a 7b                                            
    0.010030  6a 6b -> 25a 25b                                          
    0.023307  5a 5b -> 7a 7b                                            
    0.010030  5a 5b -> 25a 25b                                          
    0.029563  4a 4b -> 9a 9b                                            
    0.015644  4a 4b -> 11a 9b                                           
    0.015644  4a 4b -> 9a 11b                                           
    0.011205  4a 4b -> 11a 11b                                          
    0.070220  6a 6b -> 9a 9b                                            
    0.026239  6a 6b -> 11a 9b                                           
   -0.023814  6a 6b -> 20a 9b                                           
    0.026239  6a 6b -> 9a 11b                                           
    0.025509  6a 6b -> 11a 11b                                          
    0.011114  6a 6b -> 18a 18b                                          
   -0.023814  6a 6b -> 9a 20b                                           
    0.024572  6a 6b -> 20a 20b                                          
    0.029563  4a 4b -> 8a 8b                                            
    0.015644  4a 4b -> 12a 8b                                           
    0.015644  4a 4b -> 8a 12b                                           
    0.011205  4a 4b -> 12a 12b                                          
    0.070220  5a 5b -> 8a 8b                                            
    0.026239  5a 5b -> 12a 8b                                           
   -0.023814  5a 5b -> 21a 8b                                           
    0.026239  5a 5b -> 8a 12b                                           
    0.025509  5a 5b -> 12a 12b                                          
    0.011114  5a 5b -> 19a 19b                                          
   -0.023814  5a 5b -> 8a 21b                                           
    0.024572  5a 5b -> 21a 21b                                          
    0.010030  6a 6b -> 24a 24b                                          
    0.010030  5a 5b -> 24a 24b                                          
    0.011365  3a 6b -> 10a 9b                                           
   -0.011296  3a 6b -> 14a 9b                                           
    0.013674  3a 6b -> 7a 18b                                           
   -0.011928  3a 6b -> 23a 20b                                          
    0.011436  3a 6b -> 7a 26b                                           
   -0.074542  4a 6b -> 7a 9b                                            
    0.015212  4a 6b -> 13a 9b                                           
   -0.012978  4a 6b -> 14a 9b                                           
   -0.025152  4a 6b -> 7a 11b                                           
    0.014603  4a 6b -> 13a 11b                                          
    0.015649  4a 6b -> 7a 20b                                           
   -0.049002  6a 4b -> 7a 9b                                            
    0.010048  6a 4b -> 10a 9b                                           
   -0.011621  6a 4b -> 14a 9b                                           
    0.012767  6a 4b -> 15a 9b                                           
   -0.016564  6a 4b -> 7a 11b                                           
   -0.049002  4a 6b -> 9a 7b                                            
   -0.016564  4a 6b -> 11a 7b                                           
    0.010048  4a 6b -> 9a 10b                                           
   -0.011621  4a 6b -> 9a 14b                                           
    0.012767  4a 6b -> 9a 15b                                           
    0.013674  6a 3b -> 18a 7b                                           
    0.011436  6a 3b -> 26a 7b                                           
    0.011365  6a 3b -> 9a 10b                                           
   -0.011296  6a 3b -> 9a 14b                                           
   -0.011928  6a 3b -> 20a 23b                                          
   -0.074542  6a 4b -> 9a 7b                                            
   -0.025152  6a 4b -> 11a 7b                                           
    0.015649  6a 4b -> 20a 7b                                           
    0.015212  6a 4b -> 9a 13b                                           
    0.014603  6a 4b -> 11a 13b                                          
   -0.012978  6a 4b -> 9a 14b                                           
    0.012767  4a 6b -> 8a 16b                                           
    0.012767  6a 4b -> 16a 8b                                           
    0.011365  3a 5b -> 10a 8b                                           
   -0.011296  3a 5b -> 14a 8b                                           
    0.013674  3a 5b -> 7a 19b                                           
   -0.011928  3a 5b -> 23a 21b                                          
    0.011436  3a 5b -> 7a 27b                                           
   -0.074542  4a 5b -> 7a 8b                                            
    0.015212  4a 5b -> 13a 8b                                           
   -0.012978  4a 5b -> 14a 8b                                           
   -0.025152  4a 5b -> 7a 12b                                           
    0.014603  4a 5b -> 13a 12b                                          
    0.015649  4a 5b -> 7a 21b                                           
   -0.049002  5a 4b -> 7a 8b                                            
    0.010048  5a 4b -> 10a 8b                                           
   -0.011621  5a 4b -> 14a 8b                                           
   -0.012767  5a 4b -> 15a 8b                                           
   -0.016564  5a 4b -> 7a 12b                                           
    0.012767  4a 5b -> 9a 16b                                           
   -0.049002  4a 5b -> 8a 7b                                            
   -0.016564  4a 5b -> 12a 7b                                           
    0.010048  4a 5b -> 8a 10b                                           
   -0.011621  4a 5b -> 8a 14b                                           
   -0.012767  4a 5b -> 8a 15b                                           
    0.013674  5a 3b -> 19a 7b                                           
    0.011436  5a 3b -> 27a 7b                                           
    0.011365  5a 3b -> 8a 10b                                           
   -0.011296  5a 3b -> 8a 14b                                           
   -0.011928  5a 3b -> 21a 23b                                          
   -0.074542  5a 4b -> 8a 7b                                            
   -0.025152  5a 4b -> 12a 7b                                           
    0.015649  5a 4b -> 21a 7b                                           
    0.015212  5a 4b -> 8a 13b                                           
    0.014603  5a 4b -> 12a 13b                                          
   -0.012978  5a 4b -> 8a 14b                                           
    0.012767  5a 4b -> 16a 9b                                           
    0.043788  6a 5b -> 9a 8b                                            
    0.016440  6a 5b -> 11a 8b                                           
   -0.014758  6a 5b -> 20a 8b                                           
    0.016440  6a 5b -> 9a 12b                                           
    0.019808  6a 5b -> 11a 12b                                          
   -0.014758  6a 5b -> 9a 21b                                           
    0.016951  6a 5b -> 20a 21b                                          
    0.020506  5a 6b -> 9a 8b                                            
    0.020506  6a 5b -> 8a 9b                                            
    0.043788  5a 6b -> 8a 9b                                            
    0.016440  5a 6b -> 12a 9b                                           
   -0.014758  5a 6b -> 21a 9b                                           
    0.016440  5a 6b -> 8a 11b                                           
    0.019808  5a 6b -> 12a 11b                                          
   -0.014758  5a 6b -> 8a 20b                                           
    0.016951  5a 6b -> 21a 20b                                          
   -0.025538  4a 6a -> 7a 9a                                            
   -0.010895  4a 6a -> 11a 13a                                          
   -0.025538  4a 5a -> 7a 8a                                            
   -0.010895  4a 5a -> 12a 13a                                          
    0.023282  5a 6a -> 8a 9a                                            
   -0.015632  5a 6a -> 11a 12a                                          
   -0.013296  5a 6a -> 15a 16a                                          
   -0.012047  5a 6a -> 20a 21a                                          
   -0.011110  5a 6a -> 24a 25a                                          
   -0.020642  4a 4b 6b -> 7a 7b 9b                                      
   -0.020642  4a 4b 5b -> 7a 7b 8b                                      
   -0.020642  4a 6a 4b -> 7a 9a 7b                                      
   -0.020642  4a 5a 4b -> 7a 8a 7b                                      

 ************************ 2021-07-31 19:00:46 *************************
 Executing goldstone...

 Generation of CI equations in terms of H and C...
 Generation of antisymmetrized Goldstone diagrams...
 Number of diagrams in T^1 equations:     8
 Number of diagrams in T^2 equations:    12
 Number of diagrams in T^3 equations:    11
 Number of diagrams in T^4 equations:     8
 Translation of diagrams to factorized equations...
 Optimizing intermediate calculation...
 Number of floating-point operations per iteration step:   4.6677E+09
 Probable CPU time per iteration step (hours):      0.05
 Required memory (Mbytes):      32.1
 Number of intermediates:                                  50
 Number of intermediates to be stored:                     11
 Length of intermediate file (Mbytes):       1.7

 ************************ 2021-07-31 19:01:01 *************************
 Executing xmrcc...

 **********************************************************************
 CI(                     4 ) calculation 
 
 
 Allocation of 100.0 Mbytes of memory...
 Number of spinorbitals:                    52
 Number of alpha electrons:                        4
 Number of beta electrons:                         4
 Spin multiplicity:                     1
 z-component of spin:  0.0
 Spatial symmetry:                      1
 Convergence criterion:  1.0E-05
 Construction of occupation graphs...
 Number of                     0 -fold excitations:                      1
 Number of                     1 -fold excitations:                     60
 Number of                     2 -fold excitations:                   2766
 Number of                     3 -fold excitations:                  64064
 Number of                     4 -fold excitations:                 755150
 Total number of configurations:                 822041
 Calculation of coupling coefficients...
 Length of intermediate file (Mbytes):       1.4
 
 ======================================================================
 
 Memory requirements /Mbyte/: 
               Minimal        Optimal
 Real*8:         62.7799        62.7799
 Integer:         2.4071
 Total:          65.1870        65.1870
 

 ************************ 2021-07-31 19:01:01 *************************
 Executing mrcc...

 **********************************************************************
 CISDTQ calculation                                                     
 
 
 OpenMP parallel version is running.
 Number of CPU cores:  16
 Allocation of   62.8 Mbytes of memory...
 Number of spinorbitals:  52
 Number of alpha electrons:  4
 Number of beta  electrons:  4
 Spin multiplicity: 1
 z-component of spin:  0.0
 Spatial symmetry: 1
 Convergence criterion:  1.0E-05
 Construction of occupation graphs...
 Number of 0-fold excitations: 1
 Number of 1-fold excitations: 60
 Number of 2-fold excitations: 2766
 Number of 3-fold excitations: 64064
 Number of 4-fold excitations: 755150
 Total number of determinants: 822041
 Calculation of coupling coefficients...
 Initial cluster amplitudes are read from unit 16.
 Length of intermediate file (Mbytes):       1.4
 Reading integral list from unit 55...
 Sorting integrals...
 Calculation of diagonal elements of Hamiltonian...
 
 Starting CI iteration for root                      1 ...
 ======================================================================
 Norm of residual vector:     0.32937228      Convergence:   1.00000000
 CPU time [min]:     0.923                   Wall time [min]:     0.059
 
 Iteration  1  CI energy:   -79.16855023  Energy decrease:   0.28021865
 ======================================================================
 Norm of residual vector:     0.13713414      Convergence:   0.07048228
 CPU time [min]:     1.707                   Wall time [min]:     0.109
 
 Iteration  2  CI energy:   -79.19181880  Energy decrease:   0.02326858
 ======================================================================
 Norm of residual vector:     0.08054108      Convergence:   0.03235479
 CPU time [min]:     2.692                   Wall time [min]:     0.174
 
 Iteration  3  CI energy:   -79.19625671  Energy decrease:   0.00443791
 ======================================================================
 Norm of residual vector:     0.05442440      Convergence:   0.01984332
 CPU time [min]:     3.760                   Wall time [min]:     0.245
 
 Iteration  4  CI energy:   -79.19785452  Energy decrease:   0.00159781
 ======================================================================
 Norm of residual vector:     0.03982212      Convergence:   0.01341823
 CPU time [min]:     4.788                   Wall time [min]:     0.314
 
 Iteration  5  CI energy:   -79.19858445  Energy decrease:   0.00072993
 ======================================================================
 Norm of residual vector:     0.03070853      Convergence:   0.01015201
 CPU time [min]:     5.875                   Wall time [min]:     0.386
 
 Iteration  6  CI energy:   -79.19898849  Energy decrease:   0.00040404
 ======================================================================
 Norm of residual vector:     0.02540441      Convergence:   0.00808399
 CPU time [min]:     6.929                   Wall time [min]:     0.452
 
 Iteration  7  CI energy:   -79.19923657  Energy decrease:   0.00024808
 ======================================================================
 Norm of residual vector:     0.02197130      Convergence:   0.00726538
 CPU time [min]:     8.039                   Wall time [min]:     0.523
 
 Iteration  8  CI energy:   -79.19942103  Energy decrease:   0.00018446
 ======================================================================
 Norm of residual vector:     0.01880851      Convergence:   0.00632132
 CPU time [min]:     9.051                   Wall time [min]:     0.587
 
 Iteration  9  CI energy:   -79.19955984  Energy decrease:   0.00013880
 ======================================================================
 Norm of residual vector:     0.01463840      Convergence:   0.00501665
 CPU time [min]:     9.942                   Wall time [min]:     0.642
 
 Iteration 10  CI energy:   -79.19965414  Energy decrease:   0.00009430
 ======================================================================
 Norm of residual vector:     0.01083138      Convergence:   0.00377913
 CPU time [min]:    10.856                   Wall time [min]:     0.700
 
 Iteration 11  CI energy:   -79.19970942  Energy decrease:   0.00005529
 ======================================================================
 Norm of residual vector:     0.00851897      Convergence:   0.00282993
 CPU time [min]:    11.794                   Wall time [min]:     0.759
 
 Iteration 12  CI energy:   -79.19974005  Energy decrease:   0.00003063
 ======================================================================
 Norm of residual vector:     0.00727832      Convergence:   0.00238702
 CPU time [min]:    12.754                   Wall time [min]:     0.819
 
 Iteration 13  CI energy:   -79.19976038  Energy decrease:   0.00002032
 ======================================================================
 Norm of residual vector:     0.00657338      Convergence:   0.00222409
 CPU time [min]:    13.727                   Wall time [min]:     0.880
 
 Iteration 14  CI energy:   -79.19977655  Energy decrease:   0.00001618
 ======================================================================
 Norm of residual vector:     0.00561320      Convergence:   0.00193821
 CPU time [min]:    14.908                   Wall time [min]:     0.955
 
 Iteration 15  CI energy:   -79.19978929  Energy decrease:   0.00001273
 ======================================================================
 Norm of residual vector:     0.00472517      Convergence:   0.00162474
 CPU time [min]:    16.317                   Wall time [min]:     1.049
 
 Iteration 16  CI energy:   -79.19979840  Energy decrease:   0.00000911
 ======================================================================
 Norm of residual vector:     0.00412029      Convergence:   0.00140891
 CPU time [min]:    17.454                   Wall time [min]:     1.121
 
 Iteration 17  CI energy:   -79.19980505  Energy decrease:   0.00000665
 ======================================================================
 Norm of residual vector:     0.00346203      Convergence:   0.00121102
 CPU time [min]:    18.648                   Wall time [min]:     1.196
 
 Iteration 18  CI energy:   -79.19981004  Energy decrease:   0.00000499
 ======================================================================
 Norm of residual vector:     0.00273446      Convergence:   0.00095058
 CPU time [min]:    19.927                   Wall time [min]:     1.276
 
 Iteration 19  CI energy:   -79.19981333  Energy decrease:   0.00000329
 ======================================================================
 Norm of residual vector:     0.00212484      Convergence:   0.00071235
 CPU time [min]:    21.234                   Wall time [min]:     1.358
 
 Iteration 20  CI energy:   -79.19981528  Energy decrease:   0.00000195
 ======================================================================
 Norm of residual vector:     0.00170252      Convergence:   0.00057532
 CPU time [min]:    22.532                   Wall time [min]:     1.440
 
 Iteration 21  CI energy:   -79.19981650  Energy decrease:   0.00000122
 ======================================================================
 Norm of residual vector:     0.00134321      Convergence:   0.00046488
 CPU time [min]:    23.893                   Wall time [min]:     1.525
 
 Iteration 22  CI energy:   -79.19981729  Energy decrease:   0.00000079
 ======================================================================
 Norm of residual vector:     0.00101927      Convergence:   0.00034231
 CPU time [min]:    25.266                   Wall time [min]:     1.611
 
 Iteration 23  CI energy:   -79.19981775  Energy decrease:   0.00000046
 ======================================================================
 Norm of residual vector:     0.0000E+00      Convergence:   2.5015E-04
 CPU time [min]:    26.623                   Wall time [min]:     1.696
 
 Iteration 24  CI energy:   -79.19981800  Energy decrease:   0.00000025
 ======================================================================
 
 Iteration has converged in 24 steps.
 
 Final results:
 Total CISDTQ energy [au]:           -79.199818002386
 
 Dominant CI coefficients
 Printing threshold:  1.00E-02
 
    0.842514  Reference determinant                                     
    0.040429  3b -> 7b                                                  
   -0.173233  4b -> 7b                                                  
    0.030780  4b -> 13b                                                 
    0.018003  4b -> 14b                                                 
   -0.011716  4b -> 22b                                                 
    0.021904  6b -> 20b                                                 
    0.021904  5b -> 21b                                                 
    0.040429  3a -> 7a                                                  
   -0.173233  4a -> 7a                                                  
    0.030780  4a -> 13a                                                 
    0.018003  4a -> 14a                                                 
   -0.011716  4a -> 22a                                                 
    0.021904  6a -> 20a                                                 
    0.021904  5a -> 21a                                                 
    0.010882  3b 4b -> 7b 14b                                           
    0.024500  4b 6b -> 7b 9b                                            
    0.011242  4b 6b -> 11b 13b                                          
    0.024500  4b 5b -> 7b 8b                                            
    0.011242  4b 5b -> 12b 13b                                          
   -0.024143  5b 6b -> 8b 9b                                            
    0.015647  5b 6b -> 11b 12b                                          
    0.013197  5b 6b -> 15b 16b                                          
    0.011695  5b 6b -> 20b 21b                                          
    0.010818  5b 6b -> 24b 25b                                          
   -0.010918  3a 3b -> 7a 7b                                            
   -0.010386  3a 3b -> 14a 14b                                          
   -0.012413  3a 3b -> 23a 23b                                          
   -0.017445  4a 3b -> 7a 7b                                            
   -0.011756  4a 3b -> 22a 7b                                           
    0.013637  4a 3b -> 7a 10b                                           
[...]
 Number of diagrams in T^5 equations:    12
 Number of diagrams in T^6 equations:    12
 Number of diagrams in T^7 equations:    11
 Number of diagrams in T^8 equations:     8
 Translation of diagrams to factorized equations...
 Optimizing intermediate calculation...
 Number of floating-point operations per iteration step:   2.2746E+12
 Probable CPU time per iteration step (hours):     22.75
 Required memory (Mbytes):     585.6
 Number of intermediates:                                  98
 Number of intermediates to be stored:                     11
 Length of intermediate file (Mbytes):       1.7

 ************************ 2021-07-31 20:03:55 *************************
 Executing xmrcc...

 **********************************************************************
 CI(                     8 ) calculation 
 
 
 Allocation of 585.6 Mbytes of memory...
 Number of spinorbitals:                    52
 Number of alpha electrons:                        4
 Number of beta electrons:                         4
 Spin multiplicity:                     1
 z-component of spin:  0.0
 Spatial symmetry:                      1
 Convergence criterion:  1.0E-05
 Construction of occupation graphs...
 Number of                     0 -fold excitations:                      1
 Number of                     1 -fold excitations:                     60
 Number of                     2 -fold excitations:                   2766
 Number of                     3 -fold excitations:                  64064
 Number of                     4 -fold excitations:                 755150
 Number of                     5 -fold excitations:                4592420
 Number of                     6 -fold excitations:               14556010
 Number of                     7 -fold excitations:               22530200
 Number of                     8 -fold excitations:               13383125
 Total number of configurations:               55883796
 Calculation of coupling coefficients...
 Length of intermediate file (Mbytes):       1.4
 
 ======================================================================
 
 Memory requirements /Mbyte/: 
               Minimal        Optimal
 Real*8:       1736.2687      1736.2687
 Integer:         2.5515
 Total:        1738.8201      1738.8201
 

 ************************ 2021-07-31 20:03:56 *************************
 Executing mrcc...

 **********************************************************************
 CI(8) calculation                                                      
 
 
 OpenMP parallel version is running.
 Number of CPU cores:  16
 Allocation of 1736.3 Mbytes of memory...
 Number of spinorbitals:  52
 Number of alpha electrons:  4
 Number of beta  electrons:  4
 Spin multiplicity: 1
 z-component of spin:  0.0
 Spatial symmetry: 1
 Convergence criterion:  1.0E-05
 Construction of occupation graphs...
 Number of 0-fold excitations: 1
 Number of 1-fold excitations: 60
 Number of 2-fold excitations: 2766
 Number of 3-fold excitations: 64064
 Number of 4-fold excitations: 755150
 Number of 5-fold excitations: 4592420
 Number of 6-fold excitations: 14556010
 Number of 7-fold excitations: 22530200
 Number of 8-fold excitations: 13383125
 Total number of determinants: 55883796
 Calculation of coupling coefficients...
 Initial cluster amplitudes are read from unit 16.
 Length of intermediate file (Mbytes):       1.4
 Reading integral list from unit 55...
 Sorting integrals...
 Calculation of diagonal elements of Hamiltonian...
 
 Starting CI iteration for root                      1 ...
 ======================================================================
 Norm of residual vector:     0.00776432      Convergence:   1.00000000
 CPU time [min]:    66.902                   Wall time [min]:     6.451
 
 Iteration  1  CI energy:   -79.20575624  Energy decrease:   0.31742466
 ======================================================================
 Norm of residual vector:     0.00186628      Convergence:   0.00103592
 CPU time [min]:   134.377                   Wall time [min]:    12.552
 
 Iteration  2  CI energy:   -79.20576428  Energy decrease:   0.00000804
 ======================================================================
 Norm of residual vector:     0.0000E+00      Convergence:   2.1902E-04
 CPU time [min]:   202.065                   Wall time [min]:    18.692
 
 Iteration  3  CI energy:   -79.20576469  Energy decrease:   0.00000041
 ======================================================================
 
 Iteration has converged in  3 steps.
 
 Final results:
 Total CI(8) energy [au]:            -79.205764687986
 
 Dominant CI coefficients
 Printing threshold:  1.00E-02
 
   -0.830741  Reference determinant                                     
   -0.041789  3b -> 7b                                                  
    0.178432  4b -> 7b                                                  
   -0.031532  4b -> 13b                                                 
   -0.018700  4b -> 14b                                                 
    0.011893  4b -> 22b                                                 
    0.010060  4b -> 23b                                                 
    0.010630  6b -> 9b                                                  
   -0.022084  6b -> 20b                                                 
    0.010630  5b -> 8b                                                  
   -0.022084  5b -> 21b                                                 
   -0.041789  3a -> 7a                                                  
    0.178432  4a -> 7a                                                  
   -0.031532  4a -> 13a                                                 
   -0.018700  4a -> 14a                                                 
    0.011893  4a -> 22a                                                 
    0.010060  4a -> 23a                                                 
    0.010630  6a -> 9a                                                  
   -0.022084  6a -> 20a                                                 
    0.010630  5a -> 8a                                                  
   -0.022084  5a -> 21a                                                 
   -0.011042  3b 4b -> 7b 14b                                           
   -0.025473  4b 6b -> 7b 9b                                            
   -0.011383  4b 6b -> 11b 13b                                          
   -0.025473  4b 5b -> 7b 8b                                            
   -0.011383  4b 5b -> 12b 13b                                          
    0.025091  5b 6b -> 8b 9b                                            
   -0.015745  5b 6b -> 11b 12b                                          
   -0.013082  5b 6b -> 15b 16b                                          
   -0.011603  5b 6b -> 20b 21b                                          
   -0.010704  5b 6b -> 24b 25b                                          
    0.010090  3a 3b -> 7a 7b                                            
    0.010325  3a 3b -> 14a 14b                                          
    0.012337  3a 3b -> 23a 23b                                          
    0.017413  4a 3b -> 7a 7b                                            
    0.011868  4a 3b -> 22a 7b                                           
   -0.013719  4a 3b -> 7a 10b                                           
    0.017413  3a 4b -> 7a 7b                                            
   -0.013719  3a 4b -> 10a 7b                                           
    0.011868  3a 4b -> 7a 22b                                           
    0.248394  4a 4b -> 7a 7b                                            
   -0.010229  4a 4b -> 10a 7b                                           
   -0.035845  4a 4b -> 13a 7b                                           
    0.034532  4a 4b -> 14a 7b                                           
   -0.021089  4a 4b -> 22a 7b                                           
   -0.010229  4a 4b -> 7a 10b                                           
   -0.035845  4a 4b -> 7a 13b                                           
    0.034532  4a 4b -> 7a 14b                                           
    0.010330  4a 4b -> 14a 14b                                          
    0.010798  4a 4b -> 17a 17b                                          
   -0.021089  4a 4b -> 7a 22b                                           
    0.010659  4a 4b -> 22a 22b                                          
    0.036666  6a 6b -> 7a 7b                                            
    0.036666  5a 5b -> 7a 7b                                            
    0.030946  4a 4b -> 9a 9b                                            
    0.016033  4a 4b -> 11a 9b                                           
    0.016033  4a 4b -> 9a 11b                                           
    0.011091  4a 4b -> 11a 11b                                          
    0.081421  6a 6b -> 9a 9b                                            
    0.029114  6a 6b -> 11a 9b                                           
   -0.026308  6a 6b -> 20a 9b                                           
    0.029114  6a 6b -> 9a 11b                                           
    0.025772  6a 6b -> 11a 11b                                          
    0.010786  6a 6b -> 18a 18b                                          
   -0.026308  6a 6b -> 9a 20b                                           
    0.024066  6a 6b -> 20a 20b                                          
    0.030946  4a 4b -> 8a 8b                                            
    0.016033  4a 4b -> 12a 8b                                           
    0.016033  4a 4b -> 8a 12b                                           
    0.011091  4a 4b -> 12a 12b                                          
    0.081421  5a 5b -> 8a 8b                                            
    0.029114  5a 5b -> 12a 8b                                           
   -0.026308  5a 5b -> 21a 8b                                           
    0.029114  5a 5b -> 8a 12b                                           
    0.025772  5a 5b -> 12a 12b                                          
    0.010786  5a 5b -> 19a 19b                                          
   -0.026308  5a 5b -> 8a 21b                                           
    0.024066  5a 5b -> 21a 21b                                          
    0.012314  3a 6b -> 10a 9b                                           
   -0.011786  3a 6b -> 14a 9b                                           
    0.010088  3a 6b -> 7a 11b                                           
    0.014212  3a 6b -> 7a 18b                                           
   -0.011818  3a 6b -> 23a 20b                                          
    0.012093  3a 6b -> 7a 26b                                           
   -0.087640  4a 6b -> 7a 9b                                            
    0.016590  4a 6b -> 13a 9b                                           
   -0.013637  4a 6b -> 14a 9b                                           
   -0.027957  4a 6b -> 7a 11b                                           
    0.015044  4a 6b -> 13a 11b                                          
    0.019131  4a 6b -> 7a 20b                                           
   -0.062167  6a 4b -> 7a 9b                                            
    0.011400  6a 4b -> 10a 9b                                           
   -0.012863  6a 4b -> 14a 9b                                           
    0.012783  6a 4b -> 15a 9b                                           
   -0.019956  6a 4b -> 7a 11b                                           
    0.010080  6a 4b -> 7a 20b                                           
   -0.062167  4a 6b -> 9a 7b                                            
   -0.019956  4a 6b -> 11a 7b                                           
    0.010080  4a 6b -> 20a 7b                                           
    0.011400  4a 6b -> 9a 10b                                           
   -0.012863  4a 6b -> 9a 14b                                           
    0.012783  4a 6b -> 9a 15b                                           
    0.010088  6a 3b -> 11a 7b                                           
    0.014212  6a 3b -> 18a 7b                                           
    0.012093  6a 3b -> 26a 7b                                           
    0.012314  6a 3b -> 9a 10b                                           
   -0.011786  6a 3b -> 9a 14b                                           
   -0.011818  6a 3b -> 20a 23b                                          
   -0.087640  6a 4b -> 9a 7b                                            
   -0.027957  6a 4b -> 11a 7b                                           
    0.019131  6a 4b -> 20a 7b                                           
    0.016590  6a 4b -> 9a 13b                                           
    0.015044  6a 4b -> 11a 13b                                          
   -0.013637  6a 4b -> 9a 14b                                           
    0.012783  4a 6b -> 8a 16b                                           
    0.012783  6a 4b -> 16a 8b                                           
    0.012314  3a 5b -> 10a 8b                                           
   -0.011786  3a 5b -> 14a 8b                                           
    0.010088  3a 5b -> 7a 12b                                           
    0.014212  3a 5b -> 7a 19b                                           
   -0.011818  3a 5b -> 23a 21b                                          
    0.012093  3a 5b -> 7a 27b                                           
   -0.087640  4a 5b -> 7a 8b                                            
    0.016590  4a 5b -> 13a 8b                                           
   -0.013637  4a 5b -> 14a 8b                                           
   -0.027957  4a 5b -> 7a 12b                                           
    0.015044  4a 5b -> 13a 12b                                          
    0.019131  4a 5b -> 7a 21b                                           
   -0.062167  5a 4b -> 7a 8b                                            
    0.011400  5a 4b -> 10a 8b                                           
   -0.012863  5a 4b -> 14a 8b                                           
   -0.012783  5a 4b -> 15a 8b                                           
   -0.019956  5a 4b -> 7a 12b                                           
    0.010080  5a 4b -> 7a 21b                                           
    0.012783  4a 5b -> 9a 16b                                           
   -0.062167  4a 5b -> 8a 7b                                            
   -0.019956  4a 5b -> 12a 7b                                           
    0.010080  4a 5b -> 21a 7b                                           
    0.011400  4a 5b -> 8a 10b                                           
   -0.012863  4a 5b -> 8a 14b                                           
   -0.012783  4a 5b -> 8a 15b                                           
    0.010088  5a 3b -> 12a 7b                                           
    0.014212  5a 3b -> 19a 7b                                           
    0.012093  5a 3b -> 27a 7b                                           
    0.012314  5a 3b -> 8a 10b                                           
   -0.011786  5a 3b -> 8a 14b                                           
   -0.011818  5a 3b -> 21a 23b                                          
   -0.087640  5a 4b -> 8a 7b                                            
   -0.027957  5a 4b -> 12a 7b                                           
    0.019131  5a 4b -> 21a 7b                                           
    0.016590  5a 4b -> 8a 13b                                           
    0.015044  5a 4b -> 12a 13b                                          
   -0.013637  5a 4b -> 8a 14b                                           
    0.012783  5a 4b -> 16a 9b                                           
    0.049848  6a 5b -> 9a 8b                                            
    0.017854  6a 5b -> 11a 8b                                           
   -0.015883  6a 5b -> 20a 8b                                           
    0.017854  6a 5b -> 9a 12b                                           
    0.020051  6a 5b -> 11a 12b                                          
   -0.015883  6a 5b -> 9a 21b                                           
    0.016493  6a 5b -> 20a 21b                                          
    0.024758  5a 6b -> 9a 8b                                            
    0.024758  6a 5b -> 8a 9b                                            
    0.049848  5a 6b -> 8a 9b                                            
    0.017854  5a 6b -> 12a 9b                                           
   -0.015883  5a 6b -> 21a 9b                                           
    0.017854  5a 6b -> 8a 11b                                           
    0.020051  5a 6b -> 12a 11b                                          
   -0.015883  5a 6b -> 8a 20b                                           
    0.016493  5a 6b -> 21a 20b                                          
   -0.011042  3a 4a -> 7a 14a                                           
   -0.025473  4a 6a -> 7a 9a                                            
   -0.011383  4a 6a -> 11a 13a                                          
   -0.025473  4a 5a -> 7a 8a                                            
   -0.011383  4a 5a -> 12a 13a                                          
    0.025091  5a 6a -> 8a 9a                                            
   -0.015745  5a 6a -> 11a 12a                                          
   -0.013082  5a 6a -> 15a 16a                                          
   -0.011603  5a 6a -> 20a 21a                                          
   -0.010704  5a 6a -> 24a 25a                                          
   -0.019746  4a 4b 6b -> 7a 7b 9b                                      
   -0.019746  4a 4b 5b -> 7a 7b 8b                                      
   -0.019746  4a 6a 4b -> 7a 9a 7b                                      
   -0.019746  4a 5a 4b -> 7a 8a 7b                                      
   -0.011633  4a 4b 5b 6b -> 7a 7b 8b 9b                                
   -0.031652  4a 6a 4b 6b -> 7a 9a 7b 9b                                
   -0.010824  4a 6a 4b 6b -> 7a 11a 7b 9b                               
    0.011361  4a 6a 4b 6b -> 7a 20a 7b 9b                               
   -0.010824  4a 6a 4b 6b -> 7a 9a 7b 11b                               
    0.011361  4a 6a 4b 6b -> 7a 9a 7b 20b                               
   -0.031652  4a 5a 4b 5b -> 7a 8a 7b 8b                                
   -0.010824  4a 5a 4b 5b -> 7a 12a 7b 8b                               
    0.011361  4a 5a 4b 5b -> 7a 21a 7b 8b                               
   -0.010824  4a 5a 4b 5b -> 7a 8a 7b 12b                               
    0.011361  4a 5a 4b 5b -> 7a 8a 7b 21b                               
   -0.010896  5a 6a 5b 6b -> 8a 9a 8b 9b                                
    0.014923  4a 5a 5b 6b -> 7a 8a 8b 9b                                
    0.014923  5a 6a 4b 5b -> 8a 9a 7b 8b                                
    0.014923  4a 6a 5b 6b -> 7a 9a 8b 9b                                
    0.014923  5a 6a 4b 6b -> 8a 9a 7b 9b                                
   -0.019799  4a 6a 4b 5b -> 7a 9a 7b 8b                                
   -0.019799  4a 5a 4b 6b -> 7a 8a 7b 9b                                
   -0.011633  4a 5a 6a 4b -> 7a 8a 9a 7b                                
    0.010312  4a 5a 4b 5b 6b -> 7a 8a 7b 8b 9b                          
    0.010312  4a 6a 4b 5b 6b -> 7a 9a 7b 8b 9b                          
    0.010312  4a 5a 6a 4b 5b -> 7a 8a 9a 7b 8b                          
    0.010312  4a 5a 6a 4b 6b -> 7a 8a 9a 7b 9b                          
 
 ************************ 2021-07-31 20:22:43 *************************
                      Normal termination of mrcc.
 **********************************************************************
