 --invoking executable--
/home/nike/cfour_v2.00beta/cfour_v2.00beta/bin/xjoda


   *************************************************************************
         <<<     CCCCCC     CCCCCC   |||     CCCCCC     CCCCCC   >>>
       <<<      CCC        CCC       |||    CCC        CCC         >>>
      <<<      CCC        CCC        |||   CCC        CCC            >>>
    <<<        CCC        CCC        |||   CCC        CCC              >>>
      <<<      CCC        CCC        |||   CCC        CCC            >>>
       <<<      CCC        CCC       |||    CCC        CCC         >>>
         <<<     CCCCCC     CCCCCC   |||     CCCCCC     CCCCCC   >>>
   *************************************************************************

     ****************************************************************
     * CFOUR Coupled-Cluster techniques for Computational Chemistry *
     ****************************************************************
 

   Department of Chemistry                Institut fuer Physikalische Chemie
   University of Texas at Austin          Universitaet Mainz
   Austin, TX  78712, USA                 D-55099 Mainz, Germany
 
                       Version 2.00beta
 
                     blg8542.int.ets1.calculquebec.ca                  
                     Mo 2. Mär 21:12:58 EST 2020                      
                     integer*8 version is running
 
********************************************************************************
*                          Input from ZMAT file                                *
********************************************************************************
TITLE                                                                           
C  0.0000 0.0000  0.0000                                                        
C  0.0000 0.0000  1.3290                                                        
H  0.9235 0.0000 -0.5637                                                        
H -0.9235 0.0000 -0.5637                                                        
H  0.9235 0.0000  1.8927                                                        
H -0.9235 0.0000  1.8927                                                        
                                                                                
*ACES2(CALC=CCSD(T)                                                             
#UNITS=BOHR                                                                     
#GEOM=2.6729874*10/5.29177210903_Pentasilane_def2-QZVP_pbe                      
COORD=CARTESIAN                                                                 
#COORD=INTERNAL                                                                 
PRINT=4                                                                         
JODA_PRINT=4                                                                    
INPUT_MRCC=OFF                                                                  
#CC_PROG=MRCC                                                                   
#FROZEN_CORE=ON                                                                 
DROPMO=1>2                                                                      
CONTRACTION=GENERAL                                                             
#CONTRACTION=SEGMENTED                                                          
RELATIVISTIC=OFF                                                                
#EXCITE=EOMEE                                                                   
#ESTATE_CONV=5                                                                  
#ESTATE_SYM=2/2/2/2/2/2/2/2                                                     
XFORM_TOL=18                                                                    
SAVE_INTS=ON                                                                    
SCF_EXPORDER=6                                                                  
SCF_EXPSTART=5                                                                  
#SCF_DAMPING=1000                                                               
SCF_EXTRAPOLATION=ON                                                            
SCF_CONV=12                                                                     
SCF_MAXCYC=99999                                                                
CC_CONV=9                                                                       
CC_MAXCYC=999                                                                   
T3_EXTRAPOL=ON                                                                  
REFERENCE=RHF                                                                   
#SYMMETRY=OFF                                                                   
#HFSTABILITY=FOLLOW                                                             
CHARGE=+0                                                                       
MULT=1                                                                          
ABCDTYPE=STANDARD                                                               
#OCCUPATION=3-2-2-0-1-0-0-0/3-1-1-0-1-0-0-0                                     
MEM=12                                                                          
MEM_UNIT=GB                                                                     
BASIS=SPECIAL)                                                                  
                                                                                
C:def2-TZVPP                                                                    
C:def2-TZVPP                                                                    
H:def2-TZVPP                                                                    
H:def2-TZVPP                                                                    
H:def2-TZVPP                                                                    
H:def2-TZVPP                                                                    
                                                                                
********************************************************************************
  @GTFLGS-W, Keyword #UNITS not known and is ignored.
  @GTFLGS-W, Keyword #GEOM not known and is ignored.
  @GTFLGS-W, Keyword #COORD not known and is ignored.
  @GTFLGS-W, Keyword #CC_PROG not known and is ignored.
  @GTFLGS-W, Keyword #FROZEN_CORE not known and is ignored.
  @GTFLGS-W, Keyword #CONTRACTION not known and is ignored.
  @GTFLGS-W, Keyword #EXCITE not known and is ignored.
  @GTFLGS-W, Keyword #ESTATE_CONV not known and is ignored.
  @GTFLGS-W, Keyword #ESTATE_SYM not known and is ignored.
  @GTFLGS-W, Keyword #SCF_DAMPING not known and is ignored.
  @GTFLGS-W, Keyword #SYMMETRY not known and is ignored.
  @GTFLGS-W, Keyword #HFSTABILITY not known and is ignored.
  @GTFLGS-W, Keyword #OCCUPATION not known and is ignored.
    -------------------------------------------------------------------
                    CFOUR Control Parameters 
    -------------------------------------------------------------------
        External           Internal           Value            Units
          Name               Name
    -------------------------------------------------------------------
       ABCDTYPE             IABCDT         STANDARD     [  0]   ***   
       ANHARMONIC           IANHAR         OFF          [  0]   ***   
       ANH_ALGORIT          IANALG         STANDARD     [  0]   ***   
       ANH_DERIVAT          IANDER         SECOND       [  1]   ***   
       ANH_STEPSIZ          ICUBST             50000          x 10-6  
       ANH_SYMMETR          IANHSM         ABELIAN      [  0]   ***   
       AO_LADDERS           IAOLAD         SINGLEPASS   [  1]   ***   
       BASIS                IBASIS         SPECIAL      [  0]   ***   
       BREIT                IBREIT         OFF          [  0]   ***   
       BRUCK_CONV           IBRTOL          10D-  4             ***   
       BRUECKNER            IBRKNR             OFF      [  0]   ***   
       BUFFERSIZE           IBUFFS            600               ***   
       CACHE_RECS           ICHREC             10               ***   
       CALCLEVEL            ICLLVL           CCSD(T)    [ 22]   ***   
       CCORBOPT             ICCORB             OFF      [  0] x 0.01  
       CC_CONV              ICCCNV          10D-  9             ***   
       CC_EXPORDER          ICCEOR              5               ***   
       CC_EXTRAPOL          ICCEXT             DIIS     [  1]   ***   
       CC_MAXCYC            ICCCYC            999              cycles 
       CC_PROGRAM           ICCPRO         VCC          [  0]   ***   
       CHARGE               ICHRGE              0               ***   
       CHOLESKY             ICHOLE         OFF          [  0]   ***   
       CIS_CONV             ICISTL              5               ***   
       COMM_SIZE            IPSIZE            ***               ***   
       CONSTANT             ICONST         OLD          [  1]   ***   
       CONTINUUM            ICONTU         NONE         [  0]   ***   
       CONTRACTION          ICNTYP          GENERAL     [  1]   ***   
       COORDINATES          ICOORD         CARTESIAN    [  1]   ***   
       CPHF_CONVER          ICPHFT          10D- 16             ***   
       CPHF_MAXCYC          ICPHFC             64              cycles 
       CUBIC                ICUBIC         OFF          [  0]   ***   
       CURVILINEAR          ICURVY            OFF       [  0]   ***   
       DBOC                 IDBOC          OFF          [  0]   ***   
       DCT                  IDCT           OFF          [  0]   ***   
       DERIV_LEV            IDRLVL            ZERO      [  0]   ***   
       DIAG_MRCC            IEOMST          10D-  0             ***   
       DIFF_TYPE            IDIFTY         RELAXED      [  0]   ***   
       DIRECT               IDIRCT         OFF          [  0]   ***   
       DROPMO               IDRPMO   1,  2,
       ECP                  IECP           OFF          [  0]   ***   
       EIGENVECTOR          IVEC                1               ***   
       EL_ANHARM            IELANH         OFF          [  0]   ***   
       EOMFOLLOW            IEOMSR         ENERGY       [  0]   ***   
       EOM_MRCC             IMRCCE         NEW          [  1]   ***   
       EOM_NONIT            EOMNON         OFF          [  0]   ***   
       EOM_NSING            IEOMSI          10D-  0             ***   
       EOM_NSTATES          IMRCCD         DAVIDSON     [  0]   ***   
       EOM_NTRIP            IEOMTR          10D-  0             ***   
       EOM_ORDER            IEXORD         ENERGY       [  0]   ***   
       ESTATE_CONV          IEXTOL          10D-  5             ***   
       ESTATE_DIAG          IEXDIG         ITERATIVE    [  0]   ***   
       ESTATE_LOCK          IESLOC         ON           [  1]   ***   
       ESTATE_MAXC          IEXMXC             20               ***   
       ESTATE_PROP          IEXPRP         OFF          [  0]   ***   
       EVAL_HESS            IRECAL              0            # of cyc.
       EXCITATION           IEXCIT              0               ***   
       EXCITE               IEXCIT         NONE         [  0]   ***   
       FCGRADNEW            IFCGNW         OFF          [  0]   ***   
       FC_FIELD             IFINFC              0             x 10-6  
       FD_CALTYPE           IFDCAL         GRADONLY     [  0]   ***   
       FD_PROJECT           IFDPRJ         OFF          [  1]   ***   
       FD_STEPSIZE          IDISFD              0            10-4 bohr
       FD_USEGROUP          IFDGRP         FULL         [  0]   ***   
       FILE_RECSIZ          IFLREC              4096           words  
       FINITE_PERT          IFIPER              0             x 10-6  
       FIXGEOM              IFIXGM         OFF          [  0]   ***   
       FOCK                 IFOCK          AO           [  1]   ***   
       FREQ_ALGORI          IVIALG         STANDARD     [  0]   ***   
       FROZEN_CORE          IFROCO         OFF          [  0]   ***   
       FROZEN_VIRT          IFROVI         OFF          [  0]   ***   
       GAMMA_ABCD           IGABCD         STORE        [  0]   ***   
       GAMMA_ABCI           IGABCI         STORE        [  0]   ***   
       GENBAS_1             IGNBS1              0               ***   
       GENBAS_2             IGNBS2              0               ***   
       GENBAS_3             IGNBS3              0               ***   
       GENBAS_4             IGNBS4              0               ***   
       GEO_CONV             ICONTL              5              H/bohr 
       GEO_MAXCYC           IOPTCY             50               ***   
       GEO_MAXSTEP          IMXSTP            300            millibohr
       GEO_METHOD           INR            SINGLE_POINT [  5]   ***   
       GIAO                 IGIAO          OFF          [  1]   ***   
       GIMIC                IGIMIC         OFF          [  0]   ***   
       GRID                 IGRID          OFF          [  0]   ***   
       GRID_ALGO            IGALGO         SERIAL       [  0]   ***   
       GUESS                IGUESS            MOREAD    [  0]   ***   
       HBAR                 IHBAR              OFF      [  0]   ***   
       HESS_TYPE            IHESTP         SCF          [  0]   ***   
       HF2_FILE             IHF2Fl         USE          [  1]   ***   
       HFSTABILITY          ISTABL         OFF          [  0]   ***   
       INCORE               INCORE             OFF      [  0]   ***   
       INPUT_MRCC           IMRCC          OFF          [  0]   ***   
       INTEGRALS            INTTYP             VMOL     [  1]   ***   
       JODA_PRINT           IJPRNT              4               ***   
       LINDEP_TOL           ILINDP              8               ***   
       LINEQ_CONV           IZTACN          10D-  7           cycles  
       LINEQ_EXPOR          ILMAXD              5               ***   
       LINEQ_MAXCY          ILMAXC             50               ***   
       LINEQ_TYPE           ILTYPE         DIIS         [  1]   ***   
       LOCK_ORBOCC          ILOCOC             OFF      [  0]   ***   
       MEMORY_SIZE          IMEMSZ         *********           words  
       MEM_UNIT             IMEMU          GB           [  3]   ***   
       MRCC                 IMRCCC         OFF          [  0]   ***   
       MULTIPLICTY          IMULTP              1               ***   
       NEGEVAL              IDIE             ABORT      [  0]   ***   
       NEWNORM              INEWNO         OFF          [  0]   ***   
       NON-HF               INONHF             OFF      [  0]   ***   
       NTOP_TAMP            ITOPT2             15               ***   
       NUC_MODEL            INUCMO         POINT        [  0]   ***   
       OCCUPATION           IOCCU   ESTIMATED BY SCF 
       OPEN-SHELL           IOPEN          SPIN-ORBITAL [  0]   ***   
       ORBITALS             IORBTP           STANDARD   [  0]   ***   
       PARALLEL             IPARAL         ON           [  1]   ***   
       PARA_INT             IPINTS         ON           [  1]   ***   
       PARA_PRINT           IPPRIN              0               ***   
       PERT_ORB             IPTORB         STANDARD     [  0]   ***   
       POINTS               IGRDFD              0               ***   
       PRINT                IPRNT               4               ***   
       PROPS                IPROPS             OFF      [  0]   ***   
       PROP_INTEGR          IINTYP         INTERNAL     [  0]   ***   
       PSI                  IPSI           OFF          [  0]   ***   
       QUARTIC              IQUART         OFF          [  0]   ***   
       RAMAN_INT            IRAMIN         OFF          [  0]   ***   
       RAMAN_ORB            IRAMRE         UNRELAXED    [  0]   ***   
       RDO                  IRDOFM             OFF      [  0]   ***   
       REFERENCE            IREFNC             RHF      [  0]   ***   
       RELATIVIST           IRELAT         OFF          [  0]   ***   
       RELAX_DENS           IRDENS             OFF      [  0]   ***   
       RESET_FLAGS          IRESET             OFF      [  0]   ***   
       RESTART_CC           ICCRES         OFF          [  0]   ***   
       ROT_EVEC             ROTVEC              0               ***   
       SAVE_INTS            ISVINT              ON      [  1]   ***   
       SCALE_ON             ISTCRT              0               ***   
       SCF_CONV             ISCFCV          10D- 12             ***   
       SCF_DAMPING          IDAMP               0             x 10-3  
       SCF_EXPORDE          IRPPOR              6               ***   
       SCF_EXPSTAR          IRPPLS              5               ***   
       SCF_EXTRAPO          IRPP                ON      [  1]   ***   
       SCF_MAXCYC           ISCFCY            ***              cycles 
       SCF_NOSTOP           ISCFST         OFF          [  0]   ***   
       SCF_PRINT            ISCFPR              0               ***   
       SD_FIELD             IFINSD              0             x 10-6  
       SEQUENCE             ISEQUE         OFF          [  0]   ***   
       SOPERT               IPERSO         OFF          [  0]   ***   
       SPHERICAL            IDFGHI             ON       [  1]   ***   
       SPINORBIT            ISOCAL         OFF          [  0]   ***   
       SPINROTATIO          ISRCON         OFF          [  0]   ***   
       SPIN_FLIP            ISPFLP         OFF          [  0]   ***   
       SPIN_ORBIT           ISPORB         OFF          [  0]   ***   
       SPIN_SCAL            ISCSMP         OFF          [  0]   ***   
       SUBGROUP             ISUBGP         DEFAULT      [  0]   ***   
       SUBGRPAXIS           ISBXYZ         X            [  0]   ***   
       SYMMETRY             ISYM             ON         [  0]   ***   
       SYM_CHECK            ISYMCK         OVERRIDE     [  1]   ***   
       T3_EXTRAPOL          IT3EXT         ON           [  1]   ***   
       TAMP_SUM             IEVERY              5               ***   
       TESTSUITE            ITESTS         OFF          [  0]   ***   
       THERMOCH             ITHERM         OFF          [  0]   ***   
       TOL_CHOLESK          ITOLCH          10D-  4             ***   
       TRANGRAD             IRESRM         OFF          [  0]   ***   
       TRANS_INV            ITRAIN         USE          [  0]   ***   
       TREAT_PERT           ITREAT         SIMULTANEOUS [  0]   ***   
       UIJ_THRESHO          IUIJTH              1               ***   
       UNITS                IUNITS         ANGSTROM     [  0]   ***   
       UNOS                 IUNOS          OFF          [  0]   ***   
       UPDATE_HESS          IHUPDT         ON           [  1]   ***   
       VIBPHASE             ISETPH         STANDARD     [  0]   ***   
       VIBRATION            IVIB              NO        [  0]   ***   
       VIB_ALGORIT          IGEALG         STANDARD     [  0]   ***   
       VNATORB              IVNORB         OFF          [  0]   ***   
       VTRAN                IVTRAN         FULL/PARTIAL [  0]   ***   
       XFIELD               IXEFLD              0             x 10-6  
       XFORM_TOL            IXFTOL          10D- 18             ***   
       YFIELD               IYEFLD              0             x 10-6  
       ZFIELD               IZEFLD              0             x 10-6  
    -------------------------------------------------------------------
  @GETXYZ-I,     6 atoms read from ZMAT.
  1  C          6    12.00000
  2  C          6    12.00000
  3  H          1     1.00783
  4  H          1     1.00783
  5  H          1     1.00783
  6  H          1     1.00783
  1  C          6    12.00000
  2  C          6    12.00000
  3  H          1     1.00783
  4  H          1     1.00783
  5  H          1     1.00783
  6  H          1     1.00783
   12.0000000000
   12.0000000000
    1.0078250350
    1.0078250350
    1.0078250350
    1.0078250350
 After translation to center of mass coordinates 
        0.000000000000    0.000000000000   -1.255723272984
        0.000000000000    0.000000000000    1.255723272984
        1.745162441837    0.000000000000   -2.320962112684
       -1.745162441837    0.000000000000   -2.320962112684
        1.745162441837    0.000000000000    2.320962112684
       -1.745162441837    0.000000000000    2.320962112684
  Inertia tensor (amu*bohr**2)
   59.56025    0.00000    0.00000
    0.00000   71.83795    0.00000
    0.00000    0.00000   12.27770
    Inertia tensor:
       59.560252666249    0.000000000000    0.000000000000
        0.000000000000   71.837947914205    0.000000000000
        0.000000000000    0.000000000000   12.277695247956
    Principal axis orientation for molecular system: 
       -1.255723272984    0.000000000000    0.000000000000
        1.255723272984    0.000000000000    0.000000000000
       -2.320962112684    1.745162441837    0.000000000000
       -2.320962112684   -1.745162441837    0.000000000000
        2.320962112684    1.745162441837    0.000000000000
        2.320962112684   -1.745162441837    0.000000000000
    Diagonalized inertia tensor:
       12.277695247956    0.000000000000    0.000000000000
        0.000000000000   59.560252666249    0.000000000000
        0.000000000000    0.000000000000   71.837947914205
    Eigenvectors of inertia tensor: 
        0.000000000000    1.000000000000    0.000000000000
        0.000000000000    0.000000000000    1.000000000000
        1.000000000000    0.000000000000    0.000000000000
 factor:   60.1997200000000     
   Rotational constants (in cm-1): 
          0.8379933134             1.0107364779             4.9031775740
   Rotational constants (in MHz): 
      25122.4110405462         30301.1215537151        146993.5862848925
  @SYMMETRY-I, Handedness of inertial frame: 1.00000
  @SYMMETRY-I, The symmetry group is 1-fold degenerate.
  @SYMMETRY-I, The molecule belongs to an Abelian group.
   Principal axis orientation for molecule:
       -1.255723272984    0.000000000000    0.000000000000
        1.255723272984    0.000000000000    0.000000000000
       -2.320962112684    1.745162441837    0.000000000000
       -2.320962112684   -1.745162441837    0.000000000000
        2.320962112684    1.745162441837    0.000000000000
        2.320962112684   -1.745162441837    0.000000000000
   Reflection in plane  3 is a valid symmetry operation.
   Rotation about  3 is a valid symmetry operation 
   Reflection in plane  2 is a valid symmetry operation.
   Rotation about  2 is a valid symmetry operation 
   Reflection in plane  1 is a valid symmetry operation.
   Rotation about  1 is a valid symmetry operation 
   The molecule possesses an inversion center. 
  Symmetry bits:    7   7   1
********************************************************************************
   The full molecular point group is D2h .
   The largest Abelian subgroup of the full molecular point group is D2h .
   The computational point group is D2h .
********************************************************************************
 ----------------------------------------------------------------
 Z-matrix   Atomic            Coordinates (in bohr)
  Symbol    Number           X              Y              Z
 ----------------------------------------------------------------
     C         6        -1.25572327     0.00000000     0.00000000
     C         6         1.25572327     0.00000000     0.00000000
     H         1        -2.32096211     1.74516244     0.00000000
     H         1        -2.32096211    -1.74516244     0.00000000
     H         1         2.32096211     1.74516244     0.00000000
     H         1         2.32096211    -1.74516244     0.00000000
 ----------------------------------------------------------------
   Interatomic distance matrix (Angstroms) 
 
                 C             C             H             H             H    
                [ 1]        [ 2]        [ 3]        [ 4]        [ 5]
  C    [ 1]     0.00000
  C    [ 2]     1.32900     0.00000
  H    [ 3]     1.08195     2.10598     0.00000
  H    [ 4]     1.08195     2.10598     1.84700     0.00000
  H    [ 5]     2.10598     1.08195     2.45640     3.07332     0.00000
  H    [ 6]     2.10598     1.08195     3.07332     2.45640     1.84700
 
                 H    
                [ 6]
  H    [ 6]     0.00000
  Inertia tensor (amu*bohr**2)
   12.27770    0.00000    0.00000
    0.00000   59.56025    0.00000
    0.00000    0.00000   71.83795
   Rotational constants (in cm-1): 
          4.9031775740             1.0107364779             0.8379933134
   Rotational constants (in MHz): 
     146993.5862848925         30301.1215537151         25122.4110405462
  @GTFLGS-W, Keyword #UNITS not known and is ignored.
  @GTFLGS-W, Keyword #GEOM not known and is ignored.
  @GTFLGS-W, Keyword #COORD not known and is ignored.
  @GTFLGS-W, Keyword #CC_PROG not known and is ignored.
  @GTFLGS-W, Keyword #FROZEN_CORE not known and is ignored.
  @GTFLGS-W, Keyword #CONTRACTION not known and is ignored.
  @GTFLGS-W, Keyword #EXCITE not known and is ignored.
  @GTFLGS-W, Keyword #ESTATE_CONV not known and is ignored.
  @GTFLGS-W, Keyword #ESTATE_SYM not known and is ignored.
  @GTFLGS-W, Keyword #SCF_DAMPING not known and is ignored.
  @GTFLGS-W, Keyword #SYMMETRY not known and is ignored.
  @GTFLGS-W, Keyword #HFSTABILITY not known and is ignored.
  @GTFLGS-W, Keyword #OCCUPATION not known and is ignored.
  There are  118 basis functions.
 @GEOPT-W, Archive file not created for single-point calculation.
  @CHECKOUT-I, Total execution time (CPU/WALL):        0.55/       1.25 seconds.
--executable xjoda finished with status     0 in        4.16 seconds (walltime).
 --invoking executable--
/home/nike/cfour_v2.00beta/cfour_v2.00beta/bin/xvmol
 Serial version of molecule started
********************************************************************************
                    Input from MOL file
********************************************************************************
INTGRL        1    0    1    0    0    0    0    0    0                         
         *** CFOUR Program System (Release V0.1) ***                            
TITLE                                                                           
    2    3 X  Y   Z   0.10E-08              0    0                              
   9999.00      3.00                                                            
          6.00000000    1    4    1    1    1    1                              
C #1  -1.255723272983657   0.000000000000000   0.000000000000000                
   11    5                                                                      
   13575.3496820000       2.224581435200000E-004  0.000000000000000E+000        
  0.000000000000000E+000  0.000000000000000E+000  0.000000000000000E+000        
   2035.23336800000       1.723273825200000E-003  0.000000000000000E+000        
  0.000000000000000E+000  0.000000000000000E+000  0.000000000000000E+000        
   463.225623590000       8.925571531400001E-003  0.000000000000000E+000        
  0.000000000000000E+000  0.000000000000000E+000  0.000000000000000E+000        
   131.200195980000       3.572798450200000E-002  0.000000000000000E+000        
  0.000000000000000E+000  0.000000000000000E+000  0.000000000000000E+000        
   42.8530158910000       0.110762599310000       0.000000000000000E+000        
  0.000000000000000E+000  0.000000000000000E+000  0.000000000000000E+000        
   15.5841857660000       0.242956276260000       0.000000000000000E+000        
  0.000000000000000E+000  0.000000000000000E+000  0.000000000000000E+000        
   6.20671385080000       0.000000000000000E+000  0.414402634480000             
  0.000000000000000E+000  0.000000000000000E+000  0.000000000000000E+000        
   2.57648965270000       0.000000000000000E+000  0.237449686550000             
  0.000000000000000E+000  0.000000000000000E+000  0.000000000000000E+000        
  0.576963394190000       0.000000000000000E+000  0.000000000000000E+000        
   1.00000000000000       0.000000000000000E+000  0.000000000000000E+000        
  0.229728313580000       0.000000000000000E+000  0.000000000000000E+000        
  0.000000000000000E+000   1.00000000000000       0.000000000000000E+000        
  9.516444002799999E-002  0.000000000000000E+000  0.000000000000000E+000        
  0.000000000000000E+000  0.000000000000000E+000   1.00000000000000             
    6    3                                                                      
   34.6972322440000       5.333365780500000E-003  0.000000000000000E+000        
  0.000000000000000E+000                                                        
   7.95826228260000       3.586410909200000E-002  0.000000000000000E+000        
  0.000000000000000E+000                                                        
   2.37808268830000       0.142158733290000       0.000000000000000E+000        
  0.000000000000000E+000                                                        
  0.814332081830000       0.342704718450000       0.000000000000000E+000        
  0.000000000000000E+000                                                        
  0.288875472530000       0.000000000000000E+000  0.464458224330000             
  0.000000000000000E+000                                                        
  0.100568236710000       0.000000000000000E+000  0.000000000000000E+000        
  0.249557898740000                                                             
    2    2                                                                      
   1.09700000000000        1.00000000000000       0.000000000000000E+000        
  0.318000000000000       0.000000000000000E+000   1.00000000000000             
    1    1                                                                      
  0.761000000000000        1.00000000000000                                     
          1.00000000    1    3    1    1    1                                   
H #2  -2.320962112684015   1.745162441836580   0.000000000000000                
    5    3                                                                      
   34.0613410000000       6.025197800000000E-003  0.000000000000000E+000        
  0.000000000000000E+000                                                        
   5.12357460000000       4.502109400000000E-002  0.000000000000000E+000        
  0.000000000000000E+000                                                        
   1.16466260000000       0.201897260000000       0.000000000000000E+000        
  0.000000000000000E+000                                                        
  0.327230410000000       0.000000000000000E+000   1.00000000000000             
  0.000000000000000E+000                                                        
  0.103072410000000       0.000000000000000E+000  0.000000000000000E+000        
   1.00000000000000                                                             
    2    2                                                                      
   1.40700000000000        1.00000000000000       0.000000000000000E+000        
  0.388000000000000       0.000000000000000E+000   1.00000000000000             
    1    1                                                                      
   1.05700000000000        1.00000000000000                                     
FINISH                                                                          
 
********************************************************************************
 One- and two-electron integrals over symmetry-adapted AOs are calculated.

  Spherical harmonics are used.
  
   2 types of atoms
   3 symmetry operations

   Reflection in the YZ-plane
   Reflection in the XZ-plane
   Reflection in the XY-plane
  
  Integrals less than  0.10E-13 are neglected.

  Atomic type number  1 :
  -----------------------

    Nuclear charge:                        6
    number of symmetry independent atoms:  1
    highest orbital type:                  f

      1 groups of CGTOs of s type
      1 groups of CGTOs of p type
      1 groups of CGTOs of d type
      1 groups of CGTOs of f type

    nuclear coordinates (in a.u.) are :

    C #1       -1.255723272983657        0.000000000000000        0.000000000000000
  
   Basis function not normalized: 
   Center (as ordered in MOL file):   1
   Angular Momentum type          : s
   Offset within angular momentum :  1
   <chi|chi>                      :    2.7261534527
   Basis function not normalized: 
   Center (as ordered in MOL file):   1
   Angular Momentum type          : s
   Offset within angular momentum :  2
   <chi|chi>                      :    1.5828883092
   Basis function not normalized: 
   Center (as ordered in MOL file):   1
   Angular Momentum type          : p
   Offset within angular momentum :  1
   <chi|chi>                      :    2.1238408295
   Basis function not normalized: 
   Center (as ordered in MOL file):   1
   Angular Momentum type          : p
   Offset within angular momentum :  2
   <chi|chi>                      :    2.1530461678
   Basis function not normalized: 
   Center (as ordered in MOL file):   1
   Angular Momentum type          : p
   Offset within angular momentum :  3
   <chi|chi>                      :    4.0070861513
  Atomic type number  2 :
  -----------------------

    Nuclear charge:                        1
    number of symmetry independent atoms:  1
    highest orbital type:                  d

      1 groups of CGTOs of s type
      1 groups of CGTOs of p type
      1 groups of CGTOs of d type

    nuclear coordinates (in a.u.) are :

    H #2       -2.320962112684015        1.745162441836580        0.000000000000000
  
   Basis function not normalized: 
   Center (as ordered in MOL file):   2
   Angular Momentum type          : s
   Offset within angular momentum :  1
   <chi|chi>                      :    4.2221530402
   Internuclear distances (A) :

     for atom C #1 (coordinates :  -1.25572   0.00000   0.00000)

     C #1   2     distance is  1.329
     H #2   1     distance is  1.082
     H #2   2     distance is  2.106

     for atom H #2 (coordinates :  -2.32096   1.74516   0.00000)

     H #2   2     distance is  2.456
     H #2   3     distance is  1.847
     H #2   4     distance is  3.073

   Group multiplication table :

         1   2   3   4   5   6   7   8
         2   1   4   3   6   5   8   7
         3   4   1   2   7   8   5   6
         4   3   2   1   8   7   6   5
         5   6   7   8   1   2   3   4
         6   5   8   7   2   1   4   3
         7   8   5   6   3   4   1   2
         8   7   6   5   4   3   2   1

   Gaussian basis information :

   atom                 exponent      coefficients

 C #1  1    S   
+                 1   13575.349682   0.0002225   0.0000000   0.0000000   0.0000000   0.0000000
                  2    2035.233368   0.0017233   0.0000000   0.0000000   0.0000000   0.0000000
                  3     463.225624   0.0089256   0.0000000   0.0000000   0.0000000   0.0000000
                  4     131.200196   0.0357280   0.0000000   0.0000000   0.0000000   0.0000000
                  5      42.853016   0.1107626   0.0000000   0.0000000   0.0000000   0.0000000
                  6      15.584186   0.2429563   0.0000000   0.0000000   0.0000000   0.0000000
                  7       6.206714   0.0000000   0.4144026   0.0000000   0.0000000   0.0000000
                  8       2.576490   0.0000000   0.2374497   0.0000000   0.0000000   0.0000000
                  9       0.576963   0.0000000   0.0000000   1.0000000   0.0000000   0.0000000
                 10       0.229728   0.0000000   0.0000000   0.0000000   1.0000000   0.0000000
                 11       0.095164   0.0000000   0.0000000   0.0000000   0.0000000   1.0000000

 C #1  2    S   
+                12   13575.349682   0.0002225   0.0000000   0.0000000   0.0000000   0.0000000
                 13    2035.233368   0.0017233   0.0000000   0.0000000   0.0000000   0.0000000
                 14     463.225624   0.0089256   0.0000000   0.0000000   0.0000000   0.0000000
                 15     131.200196   0.0357280   0.0000000   0.0000000   0.0000000   0.0000000
                 16      42.853016   0.1107626   0.0000000   0.0000000   0.0000000   0.0000000
                 17      15.584186   0.2429563   0.0000000   0.0000000   0.0000000   0.0000000
                 18       6.206714   0.0000000   0.4144026   0.0000000   0.0000000   0.0000000
                 19       2.576490   0.0000000   0.2374497   0.0000000   0.0000000   0.0000000
                 20       0.576963   0.0000000   0.0000000   1.0000000   0.0000000   0.0000000
                 21       0.229728   0.0000000   0.0000000   0.0000000   1.0000000   0.0000000
                 22       0.095164   0.0000000   0.0000000   0.0000000   0.0000000   1.0000000

 C #1  1    X   
+                23      34.697232   0.0053334   0.0000000   0.0000000
                 24       7.958262   0.0358641   0.0000000   0.0000000
                 25       2.378083   0.1421587   0.0000000   0.0000000
                 26       0.814332   0.3427047   0.0000000   0.0000000
                 27       0.288875   0.0000000   0.4644582   0.0000000
                 28       0.100568   0.0000000   0.0000000   0.2495579

 C #1  2    X   
+                29      34.697232   0.0053334   0.0000000   0.0000000
                 30       7.958262   0.0358641   0.0000000   0.0000000
                 31       2.378083   0.1421587   0.0000000   0.0000000
                 32       0.814332   0.3427047   0.0000000   0.0000000
                 33       0.288875   0.0000000   0.4644582   0.0000000
                 34       0.100568   0.0000000   0.0000000   0.2495579

 C #1  1    Y   
+                35      34.697232   0.0053334   0.0000000   0.0000000
                 36       7.958262   0.0358641   0.0000000   0.0000000
                 37       2.378083   0.1421587   0.0000000   0.0000000
                 38       0.814332   0.3427047   0.0000000   0.0000000
                 39       0.288875   0.0000000   0.4644582   0.0000000
                 40       0.100568   0.0000000   0.0000000   0.2495579

 C #1  2    Y   
+                41      34.697232   0.0053334   0.0000000   0.0000000
                 42       7.958262   0.0358641   0.0000000   0.0000000
                 43       2.378083   0.1421587   0.0000000   0.0000000
                 44       0.814332   0.3427047   0.0000000   0.0000000
                 45       0.288875   0.0000000   0.4644582   0.0000000
                 46       0.100568   0.0000000   0.0000000   0.2495579

 C #1  1    Z   
+                47      34.697232   0.0053334   0.0000000   0.0000000
                 48       7.958262   0.0358641   0.0000000   0.0000000
                 49       2.378083   0.1421587   0.0000000   0.0000000
                 50       0.814332   0.3427047   0.0000000   0.0000000
                 51       0.288875   0.0000000   0.4644582   0.0000000
                 52       0.100568   0.0000000   0.0000000   0.2495579

 C #1  2    Z   
+                53      34.697232   0.0053334   0.0000000   0.0000000
                 54       7.958262   0.0358641   0.0000000   0.0000000
                 55       2.378083   0.1421587   0.0000000   0.0000000
                 56       0.814332   0.3427047   0.0000000   0.0000000
                 57       0.288875   0.0000000   0.4644582   0.0000000
                 58       0.100568   0.0000000   0.0000000   0.2495579

 C #1  1    XX  
+                59       1.097000   1.0000000   0.0000000
                 60       0.318000   0.0000000   1.0000000

 C #1  2    XX  
+                61       1.097000   1.0000000   0.0000000
                 62       0.318000   0.0000000   1.0000000

 C #1  1    XY  
+                63       1.097000   1.0000000   0.0000000
                 64       0.318000   0.0000000   1.0000000

 C #1  2    XY  
+                65       1.097000   1.0000000   0.0000000
                 66       0.318000   0.0000000   1.0000000

 C #1  1    XZ  
+                67       1.097000   1.0000000   0.0000000
                 68       0.318000   0.0000000   1.0000000

 C #1  2    XZ  
+                69       1.097000   1.0000000   0.0000000
                 70       0.318000   0.0000000   1.0000000

 C #1  1    YY  
+                71       1.097000   1.0000000   0.0000000
                 72       0.318000   0.0000000   1.0000000

 C #1  2    YY  
+                73       1.097000   1.0000000   0.0000000
                 74       0.318000   0.0000000   1.0000000

 C #1  1    YZ  
+                75       1.097000   1.0000000   0.0000000
                 76       0.318000   0.0000000   1.0000000

 C #1  2    YZ  
+                77       1.097000   1.0000000   0.0000000
                 78       0.318000   0.0000000   1.0000000

 C #1  1    ZZ  
+                79       1.097000   1.0000000   0.0000000
                 80       0.318000   0.0000000   1.0000000

 C #1  2    ZZ  
+                81       1.097000   1.0000000   0.0000000
                 82       0.318000   0.0000000   1.0000000

 C #1  1    F300
+                83       0.761000   1.0000000

 C #1  2    F300
+                84       0.761000   1.0000000

 C #1  1    F210
+                85       0.761000   1.0000000

 C #1  2    F210
+                86       0.761000   1.0000000

 C #1  1    F201
+                87       0.761000   1.0000000

 C #1  2    F201
+                88       0.761000   1.0000000

 C #1  1    F120
+                89       0.761000   1.0000000

 C #1  2    F120
+                90       0.761000   1.0000000

 C #1  1    F111
+                91       0.761000   1.0000000

 C #1  2    F111
+                92       0.761000   1.0000000

 C #1  1    F102
+                93       0.761000   1.0000000

 C #1  2    F102
+                94       0.761000   1.0000000

 C #1  1    F030
+                95       0.761000   1.0000000

 C #1  2    F030
+                96       0.761000   1.0000000

 C #1  1    F021
+                97       0.761000   1.0000000

 C #1  2    F021
+                98       0.761000   1.0000000

 C #1  1    F012
+                99       0.761000   1.0000000

 C #1  2    F012
+               100       0.761000   1.0000000

 C #1  1    F003
+               101       0.761000   1.0000000

 C #1  2    F003
+               102       0.761000   1.0000000

 H #2  1    S   
+               103      34.061341   0.0060252   0.0000000   0.0000000
                104       5.123575   0.0450211   0.0000000   0.0000000
                105       1.164663   0.2018973   0.0000000   0.0000000
                106       0.327230   0.0000000   1.0000000   0.0000000
                107       0.103072   0.0000000   0.0000000   1.0000000

 H #2  2    S   
+               108      34.061341   0.0060252   0.0000000   0.0000000
                109       5.123575   0.0450211   0.0000000   0.0000000
                110       1.164663   0.2018973   0.0000000   0.0000000
                111       0.327230   0.0000000   1.0000000   0.0000000
                112       0.103072   0.0000000   0.0000000   1.0000000

 H #2  3    S   
+               113      34.061341   0.0060252   0.0000000   0.0000000
                114       5.123575   0.0450211   0.0000000   0.0000000
                115       1.164663   0.2018973   0.0000000   0.0000000
                116       0.327230   0.0000000   1.0000000   0.0000000
                117       0.103072   0.0000000   0.0000000   1.0000000

 H #2  4    S   
+               118      34.061341   0.0060252   0.0000000   0.0000000
                119       5.123575   0.0450211   0.0000000   0.0000000
                120       1.164663   0.2018973   0.0000000   0.0000000
                121       0.327230   0.0000000   1.0000000   0.0000000
                122       0.103072   0.0000000   0.0000000   1.0000000

 H #2  1    X   
+               123       1.407000   1.0000000   0.0000000
                124       0.388000   0.0000000   1.0000000

 H #2  2    X   
+               125       1.407000   1.0000000   0.0000000
                126       0.388000   0.0000000   1.0000000

 H #2  3    X   
+               127       1.407000   1.0000000   0.0000000
                128       0.388000   0.0000000   1.0000000

 H #2  4    X   
+               129       1.407000   1.0000000   0.0000000
                130       0.388000   0.0000000   1.0000000

 H #2  1    Y   
+               131       1.407000   1.0000000   0.0000000
                132       0.388000   0.0000000   1.0000000

 H #2  2    Y   
+               133       1.407000   1.0000000   0.0000000
                134       0.388000   0.0000000   1.0000000

 H #2  3    Y   
+               135       1.407000   1.0000000   0.0000000
                136       0.388000   0.0000000   1.0000000

 H #2  4    Y   
+               137       1.407000   1.0000000   0.0000000
                138       0.388000   0.0000000   1.0000000

 H #2  1    Z   
+               139       1.407000   1.0000000   0.0000000
                140       0.388000   0.0000000   1.0000000

 H #2  2    Z   
+               141       1.407000   1.0000000   0.0000000
                142       0.388000   0.0000000   1.0000000

 H #2  3    Z   
+               143       1.407000   1.0000000   0.0000000
                144       0.388000   0.0000000   1.0000000

 H #2  4    Z   
+               145       1.407000   1.0000000   0.0000000
                146       0.388000   0.0000000   1.0000000

 H #2  1    XX  
+               147       1.057000   1.0000000

 H #2  2    XX  
+               148       1.057000   1.0000000

 H #2  3    XX  
+               149       1.057000   1.0000000

 H #2  4    XX  
+               150       1.057000   1.0000000

 H #2  1    XY  
+               151       1.057000   1.0000000

 H #2  2    XY  
+               152       1.057000   1.0000000

 H #2  3    XY  
+               153       1.057000   1.0000000

 H #2  4    XY  
+               154       1.057000   1.0000000

 H #2  1    XZ  
+               155       1.057000   1.0000000

 H #2  2    XZ  
+               156       1.057000   1.0000000

 H #2  3    XZ  
+               157       1.057000   1.0000000

 H #2  4    XZ  
+               158       1.057000   1.0000000

 H #2  1    YY  
+               159       1.057000   1.0000000

 H #2  2    YY  
+               160       1.057000   1.0000000

 H #2  3    YY  
+               161       1.057000   1.0000000

 H #2  4    YY  
+               162       1.057000   1.0000000

 H #2  1    YZ  
+               163       1.057000   1.0000000

 H #2  2    YZ  
+               164       1.057000   1.0000000

 H #2  3    YZ  
+               165       1.057000   1.0000000

 H #2  4    YZ  
+               166       1.057000   1.0000000

 H #2  1    ZZ  
+               167       1.057000   1.0000000

 H #2  2    ZZ  
+               168       1.057000   1.0000000

 H #2  3    ZZ  
+               169       1.057000   1.0000000

 H #2  4    ZZ  
+               170       1.057000   1.0000000
132118
  1  2  3  4  5  6  7  8  9 10 11 12****** 13 14*** 15 16 17 18 19 20 21 22
 23 24*** 25 26 27 28 29 30 31 32 33 34 35 36****** 37 38*** 39 40 41 42 43
 44 45 46 47 48*** 49 50 51 52 53 54 55*** 56 57 58 59 60 61 62 63 64 65***
 66 67 68 69 70 71 72*** 73 74 75 76 77 78 79 80 81 82*** 83 84 85 86 87 88
 89*** 90 91 92 93 94 95 96 97 98 99100***101102103104105106107108109110111
112113114115116117118
1

             SYMMETRY TRANSFORMATION INFO
            118 SYMMETRY ADAPTED BASIS FUNCTIONS 


          irreducible representation number 1

    1    1  C #1     1s     2   1   1.0   2   1.0
    2    2  C #1     1s     2   3   1.0   4   1.0
    3    3  C #1     1s     2   5   1.0   6   1.0
    4    4  C #1     1s     2   7   1.0   8   1.0
    5    5  C #1     1s     2   9   1.0  10   1.0
    6    6  C #1     2px    2  11   1.0  12  -1.0
    7    7  C #1     2px    2  13   1.0  14  -1.0
    8    8  C #1     2px    2  15   1.0  16  -1.0
    9    9  C #1     3d2-   6  29  -1.0  41  -1.0  49   2.0  30  -1.0  42  -1.0  50   2.0
   10   10  C #1     3d2-   6  31  -1.0  43  -1.0  51   2.0  32  -1.0  44  -1.0  52   2.0
   11   11  C #1     3d1+   4  29   1.0  41  -1.0  30   1.0  42  -1.0
   12   12  C #1     3d1+   4  31   1.0  43  -1.0  32   1.0  44  -1.0
   13   13  C #1     4f3-   6  53  -1.0  59  -1.0  63   4.0  54   1.0  60   1.0  64  -4.0
   14   14  C #1     4f0    4  53   1.0  59  -3.0  54  -1.0  60   3.0
   15   15  H #2     1s     4  73   1.0  74   1.0  75   1.0  76   1.0
   16   16  H #2     1s     4  77   1.0  78   1.0  79   1.0  80   1.0
   17   17  H #2     1s     4  81   1.0  82   1.0  83   1.0  84   1.0
   18   18  H #2     2px    4  85   1.0  86  -1.0  87   1.0  88  -1.0
   19   19  H #2     2px    4  89   1.0  90  -1.0  91   1.0  92  -1.0
   20   20  H #2     2py    4  93   1.0  94   1.0  95  -1.0  96  -1.0
   21   21  H #2     2py    4  97   1.0  98   1.0  99  -1.0 100  -1.0
   22   22  H #2     3d2-  12 109  -1.0 121  -1.0 129   2.0 110  -1.0 122  -1.0 130   2.0 111  -1.0 123  -1.0
                              131   2.0 112  -1.0 124  -1.0 132   2.0
   23   23  H #2     3d1-   4 113   1.0 114  -1.0 115  -1.0 116   1.0
   24   24  H #2     3d1+   8 109   1.0 121  -1.0 110   1.0 122  -1.0 111   1.0 123  -1.0 112   1.0 124  -1.0



          irreducible representation number 2

   25    1  C #1     1s     2   1   1.0   2  -1.0
   26    2  C #1     1s     2   3   1.0   4  -1.0
   27    3  C #1     1s     2   5   1.0   6  -1.0
   28    4  C #1     1s     2   7   1.0   8  -1.0
   29    5  C #1     1s     2   9   1.0  10  -1.0
   30    6  C #1     2px    2  11   1.0  12   1.0
   31    7  C #1     2px    2  13   1.0  14   1.0
   32    8  C #1     2px    2  15   1.0  16   1.0
   33    9  C #1     3d2-   6  29  -1.0  41  -1.0  49   2.0  30   1.0  42   1.0  50  -2.0
   34   10  C #1     3d2-   6  31  -1.0  43  -1.0  51   2.0  32   1.0  44   1.0  52  -2.0
   35   11  C #1     3d1+   4  29   1.0  41  -1.0  30  -1.0  42   1.0
   36   12  C #1     3d1+   4  31   1.0  43  -1.0  32  -1.0  44   1.0
   37   13  C #1     4f3-   6  53  -1.0  59  -1.0  63   4.0  54  -1.0  60  -1.0  64   4.0
   38   14  C #1     4f0    4  53   1.0  59  -3.0  54   1.0  60  -3.0
   39   15  H #2     1s     4  73   1.0  74  -1.0  75   1.0  76  -1.0
   40   16  H #2     1s     4  77   1.0  78  -1.0  79   1.0  80  -1.0
   41   17  H #2     1s     4  81   1.0  82  -1.0  83   1.0  84  -1.0
   42   18  H #2     2px    4  85   1.0  86   1.0  87   1.0  88   1.0
   43   19  H #2     2px    4  89   1.0  90   1.0  91   1.0  92   1.0
   44   20  H #2     2py    4  93   1.0  94  -1.0  95  -1.0  96   1.0
   45   21  H #2     2py    4  97   1.0  98  -1.0  99  -1.0 100   1.0
   46   22  H #2     3d2-  12 109  -1.0 121  -1.0 129   2.0 110   1.0 122   1.0 130  -2.0 111  -1.0 123  -1.0
                              131   2.0 112   1.0 124   1.0 132  -2.0
   47   23  H #2     3d1-   4 113   1.0 114   1.0 115  -1.0 116  -1.0
   48   24  H #2     3d1+   8 109   1.0 121  -1.0 110  -1.0 122   1.0 111   1.0 123  -1.0 112  -1.0 124   1.0



          irreducible representation number 3

   49    1  C #1     2py    2  17   1.0  18   1.0
   50    2  C #1     2py    2  19   1.0  20   1.0
   51    3  C #1     2py    2  21   1.0  22   1.0
   52    4  C #1     3d1-   2  33   1.0  34  -1.0
   53    5  C #1     3d1-   2  35   1.0  36  -1.0
   54    6  C #1     4f2-   6  55  -1.0  65  -1.0  69   4.0  56  -1.0  66  -1.0  70   4.0
   55    7  C #1     4f2+   4  55   3.0  65  -1.0  56   3.0  66  -1.0
   56    8  H #2     1s     4  73   1.0  74   1.0  75  -1.0  76  -1.0
   57    9  H #2     1s     4  77   1.0  78   1.0  79  -1.0  80  -1.0
   58   10  H #2     1s     4  81   1.0  82   1.0  83  -1.0  84  -1.0
   59   11  H #2     2px    4  85   1.0  86  -1.0  87  -1.0  88   1.0
   60   12  H #2     2px    4  89   1.0  90  -1.0  91  -1.0  92   1.0
   61   13  H #2     2py    4  93   1.0  94   1.0  95   1.0  96   1.0
   62   14  H #2     2py    4  97   1.0  98   1.0  99   1.0 100   1.0
   63   15  H #2     3d2-  12 109  -1.0 121  -1.0 129   2.0 110  -1.0 122  -1.0 130   2.0 111   1.0 123   1.0
                              131  -2.0 112   1.0 124   1.0 132  -2.0
   64   16  H #2     3d1-   4 113   1.0 114  -1.0 115   1.0 116  -1.0
   65   17  H #2     3d1+   8 109   1.0 121  -1.0 110   1.0 122  -1.0 111  -1.0 123   1.0 112  -1.0 124   1.0



          irreducible representation number 4

   66    1  C #1     2py    2  17   1.0  18  -1.0
   67    2  C #1     2py    2  19   1.0  20  -1.0
   68    3  C #1     2py    2  21   1.0  22  -1.0
   69    4  C #1     3d1-   2  33   1.0  34   1.0
   70    5  C #1     3d1-   2  35   1.0  36   1.0
   71    6  C #1     4f2-   6  55  -1.0  65  -1.0  69   4.0  56   1.0  66   1.0  70  -4.0
   72    7  C #1     4f2+   4  55   3.0  65  -1.0  56  -3.0  66   1.0
   73    8  H #2     1s     4  73   1.0  74  -1.0  75  -1.0  76   1.0
   74    9  H #2     1s     4  77   1.0  78  -1.0  79  -1.0  80   1.0
   75   10  H #2     1s     4  81   1.0  82  -1.0  83  -1.0  84   1.0
   76   11  H #2     2px    4  85   1.0  86   1.0  87  -1.0  88  -1.0
   77   12  H #2     2px    4  89   1.0  90   1.0  91  -1.0  92  -1.0
   78   13  H #2     2py    4  93   1.0  94  -1.0  95   1.0  96  -1.0
   79   14  H #2     2py    4  97   1.0  98  -1.0  99   1.0 100  -1.0
   80   15  H #2     3d2-  12 109  -1.0 121  -1.0 129   2.0 110   1.0 122   1.0 130  -2.0 111   1.0 123   1.0
                              131  -2.0 112  -1.0 124  -1.0 132   2.0
   81   16  H #2     3d1-   4 113   1.0 114   1.0 115   1.0 116   1.0
   82   17  H #2     3d1+   8 109   1.0 121  -1.0 110  -1.0 122   1.0 111  -1.0 123   1.0 112   1.0 124  -1.0



          irreducible representation number 5

   83    1  C #1     2pz    2  23   1.0  24   1.0
   84    2  C #1     2pz    2  25   1.0  26   1.0
   85    3  C #1     2pz    2  27   1.0  28   1.0
   86    4  C #1     3d0    2  37   1.0  38  -1.0
   87    5  C #1     3d0    2  39   1.0  40  -1.0
   88    6  C #1     4f1-   6  57  -3.0  67  -3.0  71   2.0  58  -3.0  68  -3.0  72   2.0
   89    7  C #1     4f3+   4  57   1.0  67  -1.0  58   1.0  68  -1.0
   90    8  H #2     2pz    4 101   1.0 102   1.0 103   1.0 104   1.0
   91    9  H #2     2pz    4 105   1.0 106   1.0 107   1.0 108   1.0
   92   10  H #2     3d0    4 117   1.0 118  -1.0 119   1.0 120  -1.0
   93   11  H #2     3d2+   4 125   1.0 126   1.0 127  -1.0 128  -1.0


          irreducible representation number 6

   94    1  C #1     2pz    2  23   1.0  24  -1.0
   95    2  C #1     2pz    2  25   1.0  26  -1.0
   96    3  C #1     2pz    2  27   1.0  28  -1.0
   97    4  C #1     3d0    2  37   1.0  38   1.0
   98    5  C #1     3d0    2  39   1.0  40   1.0
   99    6  C #1     4f1-   6  57  -3.0  67  -3.0  71   2.0  58   3.0  68   3.0  72  -2.0
  100    7  C #1     4f3+   4  57   1.0  67  -1.0  58  -1.0  68   1.0
  101    8  H #2     2pz    4 101   1.0 102  -1.0 103   1.0 104  -1.0
  102    9  H #2     2pz    4 105   1.0 106  -1.0 107   1.0 108  -1.0
  103   10  H #2     3d0    4 117   1.0 118   1.0 119   1.0 120   1.0
  104   11  H #2     3d2+   4 125   1.0 126  -1.0 127  -1.0 128   1.0


          irreducible representation number 7

  105    1  C #1     3d2+   2  45   1.0  46   1.0
  106    2  C #1     3d2+   2  47   1.0  48   1.0
  107    3  C #1     4f1+   2  61   1.0  62  -1.0
  108    4  H #2     2pz    4 101   1.0 102   1.0 103  -1.0 104  -1.0
  109    5  H #2     2pz    4 105   1.0 106   1.0 107  -1.0 108  -1.0
  110    6  H #2     3d0    4 117   1.0 118  -1.0 119  -1.0 120   1.0
  111    7  H #2     3d2+   4 125   1.0 126   1.0 127   1.0 128   1.0


          irreducible representation number 8

  112    1  C #1     3d2+   2  45   1.0  46  -1.0
  113    2  C #1     3d2+   2  47   1.0  48  -1.0
  114    3  C #1     4f1+   2  61   1.0  62   1.0
  115    4  H #2     2pz    4 101   1.0 102  -1.0 103  -1.0 104   1.0
  116    5  H #2     2pz    4 105   1.0 106  -1.0 107  -1.0 108   1.0
  117    6  H #2     3d0    4 117   1.0 118   1.0 119  -1.0 120  -1.0
  118    7  H #2     3d2+   4 125   1.0 126  -1.0 127   1.0 128  -1.0
  Nuclear repulsion energy :   33.4514873972 a.u.
  required memory for a1 array                5112368  words 
  required memory for a2 array                2103164  words 
 @GETMEM-I,  Allocated      70 MB of main memory.
  @MOLECU-I, One electron integrals (CPU/WALL):        0.03/       0.11 seconds.
  @TWOEL-I,     119096 integrals of symmetry type  I I I I
  @TWOEL-I,     858019 integrals of symmetry type  I J I J
  @TWOEL-I,     479869 integrals of symmetry type  I I J J
  @TWOEL-I,    1712313 integrals of symmetry type  I J K L
  @TWOEL-I, Total number of 2-e integrals    3169297.
  @MOLECU-I, Two electron integrals (CPU/WALL):        1.92/       1.99 seconds.
  @CHECKOUT-I, Total execution time (CPU/WALL):        2.33/       3.27 seconds.
--executable xvmol finished with status     0 in        3.42 seconds (walltime).
 --invoking executable--
/home/nike/cfour_v2.00beta/cfour_v2.00beta/bin/xvmol2ja
 @GETMEM-I,  Allocated   11444 MB of main memory.
  @CHECKOUT-I, Total execution time (CPU/WALL):        0.02/       0.02 seconds.
--executable xvmol2ja finished with status     0 in        0.12 seconds (walltime).
 --invoking executable--
/home/nike/cfour_v2.00beta/cfour_v2.00beta/bin/xvscf
  There are  118 functions in the AO basis.

  There are 8 irreducible representations.

       Irrep        # of functions
         1                 24
         2                 24
         3                 17
         4                 17
         5                 11
         6                 11
         7                  7
         8                  7


  Parameters for SCF calculation: 
        SCF reference function:  RHF  
  Maximum number of iterations: ****
     Full symmetry point group: D2h 
     Computational point group: D2h 
        Initial density matrix: MOREAD                 
     SCF convergence tolerance: 10**(-12)
  DIIS convergence acceleration:  ON
          Latest start for DIIS:   5
                     DIIS order:   6

  Memory information:     589112 words required.
  Fock matrices are constructed from AO integral file.
 @GETMEM-I,  Allocated       4 MB of main memory.
  Initialization and symmetry analysis required      0.019 seconds.

  @INITGES-I, Occupancies from core Hamiltonian:

          Alpha population by irrep:   2    2    1    1    1    1    0    0
           Beta population by irrep:   2    2    1    1    1    1    0    0


 total no. of electrons in initial guess :  0.000000000000000E+000
  --------------------------------------------------------------------
  Iteration         Total Energy            Largest Density Difference
  --------------------------------------------------------------------
       0            33.451487397243149              0.0000000000D+00
   current occupation vector 
     2  2  1  1  1  1  0  0
     2  2  1  1  1  1  0  0
  processed                 119096  ao basis integrals from 
                   199  buffers.
  processed                 479869  ao basis integrals from 
                   800  buffers.
  processed                 858019  ao basis integrals from 
                  1431  buffers.
       1           -59.162593757836255              0.1782268794D+01
   current occupation vector 
     2  2  1  1  1  1  0  0
     2  2  1  1  1  1  0  0
  processed                 119096  ao basis integrals from 
                   199  buffers.
  processed                 479869  ao basis integrals from 
                   800  buffers.
  processed                 858019  ao basis integrals from 
                  1431  buffers.
       2           -66.313505459719096              0.2564749203D+02
   current occupation vector 
     3  3  1  1  0  0  0  0
     3  3  1  1  0  0  0  0
  processed                 119096  ao basis integrals from 
                   199  buffers.
  processed                 479869  ao basis integrals from 
                   800  buffers.
  processed                 858019  ao basis integrals from 
                  1431  buffers.
       3           -73.367480512436089              0.2563875544D+02
   current occupation vector 
     3  2  1  1  1  0  0  0
     3  2  1  1  1  0  0  0
  processed                 119096  ao basis integrals from 
                   199  buffers.
  processed                 479869  ao basis integrals from 
                   800  buffers.
  processed                 858019  ao basis integrals from 
                  1431  buffers.
       4           -72.941470318166807              0.7963954099D+02
   current occupation vector 
     3  3  1  1  0  0  0  0
     3  3  1  1  0  0  0  0
 
 sum over diagonal and offdiagdiagonal of C(T)*S*C for irrep
                     1
  7.194245199571014E-014 -2.183616593071297E-013
 reorthoganalization of MOs is carried out
 sum over diagonal and offdiagdiagonal of C(T)*S*C for irrep
                     1
  2.022826350867035E-013 -3.207585759753812E-014
 
 sum over diagonal and offdiagdiagonal of C(T)*S*C for irrep
                     2
  6.987743716990735E-013  6.053891653852197E-013
 reorthoganalization of MOs is carried out
 sum over diagonal and offdiagdiagonal of C(T)*S*C for irrep
                     2
  1.731947918415244E-014  5.867263383385052E-013
 
 sum over diagonal and offdiagdiagonal of C(T)*S*C for irrep
                     3
 -2.864375403532904E-013  2.548367186130806E-013
 reorthoganalization of MOs is carried out
 sum over diagonal and offdiagdiagonal of C(T)*S*C for irrep
                     3
  4.141131881851834E-014 -1.723799733850994E-014
 
 sum over diagonal and offdiagdiagonal of C(T)*S*C for irrep
                     4
  2.818856259523272E-013 -1.539809201154130E-013
 reorthoganalization of MOs is carried out
 sum over diagonal and offdiagdiagonal of C(T)*S*C for irrep
                     4
 -2.731148640577885E-014  4.509994340560609E-014
 
 sum over diagonal and offdiagdiagonal of C(T)*S*C for irrep
                     5
 -3.119726699196690E-014 -1.835597040027198E-015
 reorthoganalization of MOs is carried out
 sum over diagonal and offdiagdiagonal of C(T)*S*C for irrep
                     5
  2.331468351712829E-015 -1.273781310054362E-015
 
 sum over diagonal and offdiagdiagonal of C(T)*S*C for irrep
                     6
  1.221245327087672E-015  4.160898070345827E-014
 reorthoganalization of MOs is carried out
 sum over diagonal and offdiagdiagonal of C(T)*S*C for irrep
                     6
 -2.220446049250313E-015  1.807822554562911E-015
 
 sum over diagonal and offdiagdiagonal of C(T)*S*C for irrep
                     7
  7.771561172376096E-015  7.780008527802683E-015
 reorthoganalization of MOs is carried out
 sum over diagonal and offdiagdiagonal of C(T)*S*C for irrep
                     7
  3.330669073875470E-016  1.260700545996846E-015
 
 sum over diagonal and offdiagdiagonal of C(T)*S*C for irrep
                     8
  1.421085471520200E-014  1.083333548994963E-014
 reorthoganalization of MOs is carried out
 sum over diagonal and offdiagdiagonal of C(T)*S*C for irrep
                     8
 -5.551115123125783E-016  1.598644392885048E-015
  processed                 119096  ao basis integrals from 
                   199  buffers.
  processed                 479869  ao basis integrals from 
                   800  buffers.
  processed                 858019  ao basis integrals from 
                  1431  buffers.
       5           -75.884927644094574              0.7963801053D+02
   current occupation vector 
     3  2  1  1  1  0  0  0
     3  2  1  1  1  0  0  0
  processed                 119096  ao basis integrals from 
                   199  buffers.
  processed                 479869  ao basis integrals from 
                   800  buffers.
  processed                 858019  ao basis integrals from 
                  1431  buffers.
       6           -77.866941926213229              0.2521534917D+00
   current occupation vector 
     3  2  1  1  1  0  0  0
     3  2  1  1  1  0  0  0
  processed                 119096  ao basis integrals from 
                   199  buffers.
  processed                 479869  ao basis integrals from 
                   800  buffers.
  processed                 858019  ao basis integrals from 
                  1431  buffers.
       7           -78.063180817295745              0.5093661974D-01
   current occupation vector 
     3  2  1  1  1  0  0  0
     3  2  1  1  1  0  0  0
  processed                 119096  ao basis integrals from 
                   199  buffers.
  processed                 479869  ao basis integrals from 
                   800  buffers.
  processed                 858019  ao basis integrals from 
                  1431  buffers.
       8           -78.066261717296697              0.1632851824D-01
   current occupation vector 
     3  2  1  1  1  0  0  0
     3  2  1  1  1  0  0  0
  processed                 119096  ao basis integrals from 
                   199  buffers.
  processed                 479869  ao basis integrals from 
                   800  buffers.
  processed                 858019  ao basis integrals from 
                  1431  buffers.
       9           -78.066413870886635              0.2286599499D-02
   current occupation vector 
     3  2  1  1  1  0  0  0
     3  2  1  1  1  0  0  0
 
 sum over diagonal and offdiagdiagonal of C(T)*S*C for irrep
                     1
  1.508793090465588E-013 -5.264657543847625E-013
 reorthoganalization of MOs is carried out
 sum over diagonal and offdiagdiagonal of C(T)*S*C for irrep
                     1
  1.276756478318930E-014  2.068261489997635E-013
 
 sum over diagonal and offdiagdiagonal of C(T)*S*C for irrep
                     2
  2.513544927751354E-013 -1.062358709578071E-012
 reorthoganalization of MOs is carried out
 sum over diagonal and offdiagdiagonal of C(T)*S*C for irrep
                     2
  2.688960165642129E-013  1.361798326041760E-014
 
 sum over diagonal and offdiagdiagonal of C(T)*S*C for irrep
                     3
 -2.378097718747085E-013 -3.092449982104531E-013
 reorthoganalization of MOs is carried out
 sum over diagonal and offdiagdiagonal of C(T)*S*C for irrep
                     3
 -2.331468351712829E-015  4.788877048217619E-015
 
 sum over diagonal and offdiagdiagonal of C(T)*S*C for irrep
                     4
  1.662003867863859E-013 -3.978900838188944E-014
 reorthoganalization of MOs is carried out
 sum over diagonal and offdiagdiagonal of C(T)*S*C for irrep
                     4
  7.094325127354750E-014 -7.860455277110515E-014
 
 sum over diagonal and offdiagdiagonal of C(T)*S*C for irrep
                     5
 -3.463895836830488E-014  1.162662143155400E-014
 reorthoganalization of MOs is carried out
 sum over diagonal and offdiagdiagonal of C(T)*S*C for irrep
                     5
 -1.110223024625157E-016  2.861133214370185E-015
 
 sum over diagonal and offdiagdiagonal of C(T)*S*C for irrep
                     6
  3.830269434956790E-014 -5.498015231441042E-016
 reorthoganalization of MOs is carried out
 sum over diagonal and offdiagdiagonal of C(T)*S*C for irrep
                     6
  2.331468351712829E-015 -3.578661027810866E-015
 
 sum over diagonal and offdiagdiagonal of C(T)*S*C for irrep
                     7
  1.310063169057685E-014 -6.155085276894457E-015
 reorthoganalization of MOs is carried out
 sum over diagonal and offdiagdiagonal of C(T)*S*C for irrep
                     7
 -5.551115123125783E-016  1.565132246941975E-015
 
 sum over diagonal and offdiagdiagonal of C(T)*S*C for irrep
                     8
  2.420286193682841E-014  1.751988836776818E-014
 reorthoganalization of MOs is carried out
 sum over diagonal and offdiagdiagonal of C(T)*S*C for irrep
                     8
  4.440892098500626E-016  5.603846401720476E-016
  processed                 119096  ao basis integrals from 
                   199  buffers.
  processed                 479869  ao basis integrals from 
                   800  buffers.
  processed                 858019  ao basis integrals from 
                  1431  buffers.
      10           -78.066423150333435              0.9176939509D-03
   current occupation vector 
     3  2  1  1  1  0  0  0
     3  2  1  1  1  0  0  0
  processed                 119096  ao basis integrals from 
                   199  buffers.
  processed                 479869  ao basis integrals from 
                   800  buffers.
  processed                 858019  ao basis integrals from 
                  1431  buffers.
      11           -78.066423345047781              0.1085749831D-03
   current occupation vector 
     3  2  1  1  1  0  0  0
     3  2  1  1  1  0  0  0
  processed                 119096  ao basis integrals from 
                   199  buffers.
  processed                 479869  ao basis integrals from 
                   800  buffers.
  processed                 858019  ao basis integrals from 
                  1431  buffers.
      12           -78.066423346182546              0.1574154783D-04
   current occupation vector 
     3  2  1  1  1  0  0  0
     3  2  1  1  1  0  0  0
  processed                 119096  ao basis integrals from 
                   199  buffers.
  processed                 479869  ao basis integrals from 
                   800  buffers.
  processed                 858019  ao basis integrals from 
                  1431  buffers.
      13           -78.066423346204203              0.2853184836D-05
   current occupation vector 
     3  2  1  1  1  0  0  0
     3  2  1  1  1  0  0  0
  processed                 119096  ao basis integrals from 
                   199  buffers.
  processed                 479869  ao basis integrals from 
                   800  buffers.
  processed                 858019  ao basis integrals from 
                  1431  buffers.
      14           -78.066423346204431              0.2201850341D-06
   current occupation vector 
     3  2  1  1  1  0  0  0
     3  2  1  1  1  0  0  0
 
 sum over diagonal and offdiagdiagonal of C(T)*S*C for irrep
                     1
  2.416955524608966E-013 -2.710887236357772E-013
 reorthoganalization of MOs is carried out
 sum over diagonal and offdiagdiagonal of C(T)*S*C for irrep
                     1
 -1.471045507628332E-013  1.710942217436863E-014
 
 sum over diagonal and offdiagdiagonal of C(T)*S*C for irrep
                     2
  3.623767952376511E-013 -5.406657676749573E-013
 reorthoganalization of MOs is carried out
 sum over diagonal and offdiagdiagonal of C(T)*S*C for irrep
                     2
  2.963185252724543E-013 -7.276116198342742E-013
 
 sum over diagonal and offdiagdiagonal of C(T)*S*C for irrep
                     3
 -1.397770788003072E-013 -2.340587348505131E-013
 reorthoganalization of MOs is carried out
 sum over diagonal and offdiagdiagonal of C(T)*S*C for irrep
                     3
 -5.317968287954500E-014  5.009204170213632E-016
 
 sum over diagonal and offdiagdiagonal of C(T)*S*C for irrep
                     4
  2.001732113399157E-013 -8.610937475691610E-014
 reorthoganalization of MOs is carried out
 sum over diagonal and offdiagdiagonal of C(T)*S*C for irrep
                     4
  1.865174681370263E-014  1.456937571561875E-013
 
 sum over diagonal and offdiagdiagonal of C(T)*S*C for irrep
                     5
 -3.796962744218035E-014  7.171290294879359E-015
 reorthoganalization of MOs is carried out
 sum over diagonal and offdiagdiagonal of C(T)*S*C for irrep
                     5
 -3.330669073875470E-016  1.208898717145601E-016
 
 sum over diagonal and offdiagdiagonal of C(T)*S*C for irrep
                     6
  2.431388423929093E-014 -3.701564632721202E-015
 reorthoganalization of MOs is carried out
 sum over diagonal and offdiagdiagonal of C(T)*S*C for irrep
                     6
 -3.330669073875470E-016  9.278322663974260E-016
 
 sum over diagonal and offdiagdiagonal of C(T)*S*C for irrep
                     7
  4.884981308350689E-015 -1.471083329095555E-014
 reorthoganalization of MOs is carried out
 sum over diagonal and offdiagdiagonal of C(T)*S*C for irrep
                     7
 -1.221245327087672E-015  5.614385426831980E-016
 
 sum over diagonal and offdiagdiagonal of C(T)*S*C for irrep
                     8
  2.042810365310288E-014  2.712886155875117E-014
 reorthoganalization of MOs is carried out
 sum over diagonal and offdiagdiagonal of C(T)*S*C for irrep
                     8
 -8.881784197001252E-016 -7.962293668576166E-016
  processed                 119096  ao basis integrals from 
                   199  buffers.
  processed                 479869  ao basis integrals from 
                   800  buffers.
  processed                 858019  ao basis integrals from 
                  1431  buffers.
      15           -78.066423346204459              0.6738422393D-07
   current occupation vector 
     3  2  1  1  1  0  0  0
     3  2  1  1  1  0  0  0
  processed                 119096  ao basis integrals from 
                   199  buffers.
  processed                 479869  ao basis integrals from 
                   800  buffers.
  processed                 858019  ao basis integrals from 
                  1431  buffers.
      16           -78.066423346204772              0.1233081894D-07
   current occupation vector 
     3  2  1  1  1  0  0  0
     3  2  1  1  1  0  0  0
  processed                 119096  ao basis integrals from 
                   199  buffers.
  processed                 479869  ao basis integrals from 
                   800  buffers.
  processed                 858019  ao basis integrals from 
                  1431  buffers.
      17           -78.066423346204772              0.2046870562D-08
   current occupation vector 
     3  2  1  1  1  0  0  0
     3  2  1  1  1  0  0  0
  processed                 119096  ao basis integrals from 
                   199  buffers.
  processed                 479869  ao basis integrals from 
                   800  buffers.
  processed                 858019  ao basis integrals from 
                  1431  buffers.
      18           -78.066423346204630              0.1377584583D-09
   current occupation vector 
     3  2  1  1  1  0  0  0
     3  2  1  1  1  0  0  0
  processed                 119096  ao basis integrals from 
                   199  buffers.
  processed                 479869  ao basis integrals from 
                   800  buffers.
  processed                 858019  ao basis integrals from 
                  1431  buffers.
      19           -78.066423346204459              0.3134580095D-10
   current occupation vector 
     3  2  1  1  1  0  0  0
     3  2  1  1  1  0  0  0
 
 sum over diagonal and offdiagdiagonal of C(T)*S*C for irrep
                     1
  1.632027846198980E-013  6.627507294229198E-014
 reorthoganalization of MOs is carried out
 sum over diagonal and offdiagdiagonal of C(T)*S*C for irrep
                     1
 -8.548717289613705E-014 -1.311814029175612E-013
 
 sum over diagonal and offdiagdiagonal of C(T)*S*C for irrep
                     2
  4.425348976155874E-013 -1.047118346924375E-012
 reorthoganalization of MOs is carried out
 sum over diagonal and offdiagdiagonal of C(T)*S*C for irrep
                     2
 -3.670397319410768E-013  2.364579183661606E-013
 
 sum over diagonal and offdiagdiagonal of C(T)*S*C for irrep
                     3
 -3.144151605738443E-013 -3.106612723913674E-013
 reorthoganalization of MOs is carried out
 sum over diagonal and offdiagdiagonal of C(T)*S*C for irrep
                     3
  1.842970220877760E-014 -4.288129190054358E-014
 
 sum over diagonal and offdiagdiagonal of C(T)*S*C for irrep
                     4
  2.432498646953718E-013 -4.493632306677444E-014
 reorthoganalization of MOs is carried out
 sum over diagonal and offdiagdiagonal of C(T)*S*C for irrep
                     4
 -9.514611321037592E-014 -5.842287330345884E-014
 
 sum over diagonal and offdiagdiagonal of C(T)*S*C for irrep
                     5
 -1.854072451124011E-014  1.657815675210761E-014
 reorthoganalization of MOs is carried out
 sum over diagonal and offdiagdiagonal of C(T)*S*C for irrep
                     5
 -2.220446049250313E-016 -1.671912379230581E-015
 
 sum over diagonal and offdiagdiagonal of C(T)*S*C for irrep
                     6
  9.880984919163893E-015 -1.713510425449727E-014
 reorthoganalization of MOs is carried out
 sum over diagonal and offdiagdiagonal of C(T)*S*C for irrep
                     6
  1.110223024625157E-015 -7.562680070327998E-017
 
 sum over diagonal and offdiagdiagonal of C(T)*S*C for irrep
                     7
  8.992806499463768E-015 -9.109443368444381E-015
 reorthoganalization of MOs is carried out
 sum over diagonal and offdiagdiagonal of C(T)*S*C for irrep
                     7
  6.661338147750939E-016  7.432910344549222E-016
 
 sum over diagonal and offdiagdiagonal of C(T)*S*C for irrep
                     8
  1.543210004228968E-014  2.087389068129276E-014
 reorthoganalization of MOs is carried out
 sum over diagonal and offdiagdiagonal of C(T)*S*C for irrep
                     8
 -4.440892098500626E-016 -5.650533256356341E-016
  processed                 119096  ao basis integrals from 
                   199  buffers.
  processed                 479869  ao basis integrals from 
                   800  buffers.
  processed                 858019  ao basis integrals from 
                  1431  buffers.
      20           -78.066423346204516              0.6468520164D-11
   current occupation vector 
     3  2  1  1  1  0  0  0
     3  2  1  1  1  0  0  0
  processed                 119096  ao basis integrals from 
                   199  buffers.
  processed                 479869  ao basis integrals from 
                   800  buffers.
  processed                 858019  ao basis integrals from 
                  1431  buffers.
      21           -78.066423346204630              0.1036426500D-10
   current occupation vector 
     3  2  1  1  1  0  0  0
     3  2  1  1  1  0  0  0
  processed                 119096  ao basis integrals from 
                   199  buffers.
  processed                 479869  ao basis integrals from 
                   800  buffers.
  processed                 858019  ao basis integrals from 
                  1431  buffers.
      22           -78.066423346204601              0.2005062782D-11
   current occupation vector 
     3  2  1  1  1  0  0  0
     3  2  1  1  1  0  0  0
  processed                 119096  ao basis integrals from 
                   199  buffers.
  processed                 479869  ao basis integrals from 
                   800  buffers.
  processed                 858019  ao basis integrals from 
                  1431  buffers.
      23           -78.066423346204630              0.2835939816D-11
   current occupation vector 
     3  2  1  1  1  0  0  0
     3  2  1  1  1  0  0  0
  processed                 119096  ao basis integrals from 
                   199  buffers.
  processed                 479869  ao basis integrals from 
                   800  buffers.
  processed                 858019  ao basis integrals from 
                  1431  buffers.
      24           -78.066423346204488              0.3544969873D-11
   current occupation vector 
     3  2  1  1  1  0  0  0
     3  2  1  1  1  0  0  0
 
 sum over diagonal and offdiagdiagonal of C(T)*S*C for irrep
                     1
  1.985078768029780E-013 -3.114532202855872E-013
 reorthoganalization of MOs is carried out
 sum over diagonal and offdiagdiagonal of C(T)*S*C for irrep
                     1
  5.417888360170764E-014  1.885936312177747E-013
 
[...]
    -------------------------------------------------------------------
   The AA contribution to the correlation energy is:   -0.0324912 a.u.
   The AB contribution to the correlation energy is:   -0.2938804 a.u.
   The total correlation energy is -0.358862684189 a.u.
   The total correlation energy is -0.358862684189 a.u.
  Current DIIS expansion coefficients : 
 [   1] 0.0040622656 [   2]-0.0481778980 [   3]-0.0508207462 [   4] 1.0937684995
 [   5] 0.0011678791
  Convergence information after     9 iterations: 
  Largest element of residual vector : -0.80734835E-06.
  Largest element of DIIS residual   : -0.76688051E-06.
  W(mnij) AB contribution =  0.0640272919 a.u.
  W(abef) AB contribution =  0.0941168845 a.u.
  W(mbej) AB contribution = -0.2200507078 a.u.
   After  10 iterations, amplitude changes are:
    -------------------------------------------------------------------
                 Spin      RMS          Max.      Max. change for
     Amplitude   Case     Change       Change       i    j    a    b
    -------------------------------------------------------------------
        T1        AA    0.0000000035 0.0000002364    6        82
        T2        AA    0.0000000000 0.0000000597    6    4   92   68
        T2        AB    0.0000000000-0.0000002088    6    6   92   92
    -------------------------------------------------------------------
   The AA contribution to the correlation energy is:   -0.0324911 a.u.
   The AB contribution to the correlation energy is:   -0.2938805 a.u.
   The total correlation energy is -0.358862747175 a.u.
   The total correlation energy is -0.358862747175 a.u.
  Current DIIS expansion coefficients : 
 [   1] 0.0030131148 [   2]-0.0040137016 [   3]-0.0509620753 [   4]-0.0670898798
 [   5] 1.1190525418
  Convergence information after    10 iterations: 
  Largest element of residual vector :  0.23639706E-06.
  Largest element of DIIS residual   :  0.23363669E-06.
   Largest T1 amplitudes for spin case AA:
   i       a                 i       a                 i       a    
-----------------------------------------------------------------------------
[  6      82    ] 0.02354 [  6      85    ] 0.01358 [  6      83    ] 0.01312
[  6      84    ] 0.00845 [  4      52    ] 0.00761 [  4      51    ]-0.00701
[  2       8    ] 0.00570 [  4      56    ] 0.00484 [  3      31    ] 0.00476
[  4      50    ] 0.00379 [  5      70    ] 0.00377 [  2      16    ] 0.00376
[  6      86    ] 0.00354 [  2      11    ] 0.00350 [  5      72    ] 0.00343
-----------------------------------------------------------------------------
   Norm of T1AA vector (      106 symmetry allowed elements):  0.0371057406.
-----------------------------------------------------------------------------
   Largest T2 amplitudes for spin case AB:
       _       _                 _       _                 _       _
   i   j   a   b             i   j   a   b             i   j   a   b
-----------------------------------------------------------------------------
[  6   6  92  92]-0.10878 [  6   6  93  92]-0.05874 [  6   6  92  93]-0.05874
[  6   6  93  93]-0.03714 [  6   2  92  32]-0.02469 [  2   6  32  92]-0.02469
[  6   6  82  82]-0.02319 [  2   2  32  32]-0.02175 [  3   3  92  92]-0.01960
[  4   4  52  52]-0.01908 [  6   6   9   9]-0.01858 [  5   5  31  31]-0.01741
[  6   2  93  32]-0.01725 [  2   6  32  93]-0.01725 [  5   5  52  52]-0.01712
-----------------------------------------------------------------------------
   Norm of T2AB vector (    57816 symmetry allowed elements):  0.3443986218.
-----------------------------------------------------------------------------
  W(mnij) AB contribution =  0.0640274153 a.u.
  W(abef) AB contribution =  0.0941170088 a.u.
  W(mbej) AB contribution = -0.2200511719 a.u.
   After  11 iterations, amplitude changes are:
    -------------------------------------------------------------------
                 Spin      RMS          Max.      Max. change for
     Amplitude   Case     Change       Change       i    j    a    b
    -------------------------------------------------------------------
        T1        AA    0.0000000011-0.0000000698    4        50
        T2        AA    0.0000000000 0.0000000203    6    5   92   50
        T2        AB    0.0000000000-0.0000001410    6    6   92   92
    -------------------------------------------------------------------
   The AA contribution to the correlation energy is:   -0.0324911 a.u.
   The AB contribution to the correlation energy is:   -0.2938805 a.u.
   The total correlation energy is -0.358862804377 a.u.
   The total correlation energy is -0.358862804377 a.u.
  Current DIIS expansion coefficients : 
 [   1] 1.3616358910 [   2]-0.0016684092 [   3] 0.0283546136 [   4]-0.0581322178
 [   5]-0.3301898776
  Convergence information after    11 iterations: 
  Largest element of residual vector : -0.14101671E-06.
  Largest element of DIIS residual   : -0.84186490E-07.
  W(mnij) AB contribution =  0.0640274720 a.u.
  W(abef) AB contribution =  0.0941170799 a.u.
  W(mbej) AB contribution = -0.2200514089 a.u.
   After  12 iterations, amplitude changes are:
    -------------------------------------------------------------------
                 Spin      RMS          Max.      Max. change for
     Amplitude   Case     Change       Change       i    j    a    b
    -------------------------------------------------------------------
        T1        AA    0.0000000003 0.0000000303    6        82
        T2        AA    0.0000000000 0.0000000082    6    2   92   32
        T2        AB    0.0000000000-0.0000000515    6    6   92   92
    -------------------------------------------------------------------
   The AA contribution to the correlation energy is:   -0.0324911 a.u.
   The AB contribution to the correlation energy is:   -0.2938806 a.u.
   The total correlation energy is -0.358862822155 a.u.
   The total correlation energy is -0.358862822155 a.u.
  Current DIIS expansion coefficients : 
 [   1]-0.2310812012 [   2] 1.2671790013 [   3] 0.0041253557 [   4] 0.0063384216
 [   5]-0.0465615774
  Convergence information after    12 iterations: 
  Largest element of residual vector : -0.51511951E-07.
  Largest element of DIIS residual   : -0.25044187E-07.
  W(mnij) AB contribution =  0.0640274891 a.u.
  W(abef) AB contribution =  0.0941171020 a.u.
  W(mbej) AB contribution = -0.2200514843 a.u.
   After  13 iterations, amplitude changes are:
    -------------------------------------------------------------------
                 Spin      RMS          Max.      Max. change for
     Amplitude   Case     Change       Change       i    j    a    b
    -------------------------------------------------------------------
        T1        AA    0.0000000001 0.0000000058    6        82
        T2        AA    0.0000000000 0.0000000030    6    5   92   50
        T2        AB    0.0000000000-0.0000000144    6    6   92   92
    -------------------------------------------------------------------
   The AA contribution to the correlation energy is:   -0.0324911 a.u.
   The AB contribution to the correlation energy is:   -0.2938806 a.u.
   The total correlation energy is -0.358862828457 a.u.
   The total correlation energy is -0.358862828457 a.u.
  Current DIIS expansion coefficients : 
 [   1]-0.0890570643 [   2] 0.0073698079 [   3] 1.0574373192 [   4]-0.0001835694
 [   5] 0.0244335066
  Convergence information after    13 iterations: 
  Largest element of residual vector : -0.14443493E-07.
  Largest element of DIIS residual   : -0.81219815E-08.
  W(mnij) AB contribution =  0.0640274918 a.u.
  W(abef) AB contribution =  0.0941171058 a.u.
  W(mbej) AB contribution = -0.2200514969 a.u.
   After  14 iterations, amplitude changes are:
    -------------------------------------------------------------------
                 Spin      RMS          Max.      Max. change for
     Amplitude   Case     Change       Change       i    j    a    b
    -------------------------------------------------------------------
        T1        AA    0.0000000000-0.0000000013    2         9
        T2        AA    0.0000000000 0.0000000007    6    5   92   50
        T2        AB    0.0000000000-0.0000000048    6    6   92   92
    -------------------------------------------------------------------
   The AA contribution to the correlation energy is:   -0.0324911 a.u.
   The AB contribution to the correlation energy is:   -0.2938806 a.u.
   The total correlation energy is -0.358862829274 a.u.
   The total correlation energy is -0.358862829274 a.u.
  Current DIIS expansion coefficients : 
 [   1] 0.0203443880 [   2]-0.1061554057 [   3]-0.1627588844 [   4] 1.2475243331
 [   5] 0.0010455691
  Convergence information after    14 iterations: 
  Largest element of residual vector : -0.47839536E-08.
  Largest element of DIIS residual   : -0.15468174E-08.
  W(mnij) AB contribution =  0.0640274929 a.u.
  W(abef) AB contribution =  0.0941171074 a.u.
  W(mbej) AB contribution = -0.2200515021 a.u.
   After  15 iterations, amplitude changes are:
    -------------------------------------------------------------------
                 Spin      RMS          Max.      Max. change for
     Amplitude   Case     Change       Change       i    j    a    b
    -------------------------------------------------------------------
        T1        AA    0.0000000000-0.0000000003    2         8
        T2        AA    0.0000000000 0.0000000002    6    2   82    7
        T2        AB    0.0000000000-0.0000000005    6    6   92   92
    -------------------------------------------------------------------
   The AA contribution to the correlation energy is:   -0.0324911 a.u.
   The AB contribution to the correlation energy is:   -0.2938806 a.u.
   The total correlation energy is -0.358862829535 a.u.
   The total correlation energy is -0.358862829535 a.u.
  Current DIIS expansion coefficients : 
 [   1] 0.0012029889 [   2] 0.0087470540 [   3]-0.0520784853 [   4]-0.0173816861
 [   5] 1.0595101285
  Convergence information after    15 iterations: 
  Largest element of residual vector : -0.51774546E-09.
  Largest element of DIIS residual   : -0.45454776E-09.
  Amplitude equations converged in    15iterations.
   The AA contribution to the correlation energy is:   -0.0324911 a.u.
   The AB contribution to the correlation energy is:   -0.2938806 a.u.
   The total correlation energy is -0.358862829501 a.u.
   The total correlation energy is -0.358862829501 a.u.
   The CC iterations have converged.

   Largest T1 amplitudes for spin case AA:
   i       a                 i       a                 i       a    
-----------------------------------------------------------------------------
[  6      82    ] 0.02354 [  6      85    ] 0.01358 [  6      83    ] 0.01312
[  6      84    ] 0.00845 [  4      52    ] 0.00761 [  4      51    ]-0.00701
[  2       8    ] 0.00570 [  4      56    ] 0.00484 [  3      31    ] 0.00476
[  4      50    ] 0.00379 [  5      70    ] 0.00377 [  2      16    ] 0.00376
[  6      86    ] 0.00354 [  2      11    ] 0.00350 [  5      72    ] 0.00343
-----------------------------------------------------------------------------
   Norm of T1AA vector (      106 symmetry allowed elements):  0.0371058467.
-----------------------------------------------------------------------------
   Largest T2 amplitudes for spin case AB:
       _       _                 _       _                 _       _
   i   j   a   b             i   j   a   b             i   j   a   b
-----------------------------------------------------------------------------
[  6   6  92  92]-0.10878 [  6   6  93  92]-0.05874 [  6   6  92  93]-0.05874
[  6   6  93  93]-0.03714 [  6   2  92  32]-0.02469 [  2   6  32  92]-0.02469
[  6   6  82  82]-0.02319 [  2   2  32  32]-0.02175 [  3   3  92  92]-0.01960
[  4   4  52  52]-0.01908 [  6   6   9   9]-0.01858 [  5   5  31  31]-0.01741
[  6   2  93  32]-0.01725 [  2   6  32  93]-0.01725 [  5   5  52  52]-0.01712
-----------------------------------------------------------------------------
   Norm of T2AB vector (    57816 symmetry allowed elements):  0.3443988782.
-----------------------------------------------------------------------------
       Summary of iterative solution of CC equations 
      -----------------------------------------------------------
                       Correlation           Total
       Iteration         Energy              Energy
      -----------------------------------------------------------
            0        -0.334215202570     -78.400638548774  DIIS 
            1        -0.347774198656     -78.414197544860  DIIS 
            2        -0.356108742842     -78.422532089047  DIIS 
            3        -0.357698114821     -78.424121461025  DIIS 
            4        -0.358780421285     -78.425203767490  DIIS 
            5        -0.358860960854     -78.425284307059  DIIS 
            6        -0.358864547017     -78.425287893222  DIIS 
            7        -0.358862663181     -78.425286009385  DIIS 
            8        -0.358862356731     -78.425285702935  DIIS 
            9        -0.358862684189     -78.425286030393  DIIS 
           10        -0.358862747175     -78.425286093379  DIIS 
           11        -0.358862804377     -78.425286150581  DIIS 
           12        -0.358862822155     -78.425286168359  DIIS 
           13        -0.358862828457     -78.425286174661  DIIS 
           14        -0.358862829274     -78.425286175479  DIIS 
           15        -0.358862829501     -78.425286175705  DIIS 
      -----------------------------------------------------------
      A miracle has come to pass. The CC iterations have converged.
 @DIMT3-I, Dimensions of T3 amplitudes : 
               # abc          # ijk       Symmetry    Spin 
                    28037              1     1          1
                    27983              3     2          1
                    28065              3     3          1
                    28065              3     4          1
                    25969              1     5          1
                    25915              3     6          1
                    25893              3     7          1
                    25893              3     8          1
                    86400             13     1          2
                    86347             14     2          2
                    85939             14     3          2
                    85939             14     4          2
                    78997              8     5          2
                    78944              9     6          2
                    78442              9     7          2
                    78442              9     8          2
                    86400             13     1          3
                    86347             14     2          3
                    85939             14     3          3
                    85939             14     4          3
                    78997              8     5          3
                    78944              9     6          3
                    78442              9     7          3
                    78442              9     8          3
                    28037              1     1          4
                    27983              3     2          4
                    28065              3     3          4
                    28065              3     4          4
                    25969              1     5          4
                    25915              3     6          4
                    25893              3     7          4
                    25893              3     8          4
 @DIMT3-I, Dimensions of T3 amplitudes : 
               # abc          # ijk       Symmetry    Spin 
                    28037              1     1          1
                    27983              3     2          1
                    28065              3     3          1
                    28065              3     4          1
                    25969              1     5          1
                    25915              3     6          1
                    25893              3     7          1
                    25893              3     8          1
                    86400             13     1          2
                    86347             14     2          2
                    85939             14     3          2
                    85939             14     4          2
                    78997              8     5          2
                    78944              9     6          2
                    78442              9     7          2
                    78442              9     8          2
                    86400             13     1          3
                    86347             14     2          3
                    85939             14     3          3
                    85939             14     4          3
                    78997              8     5          3
                    78944              9     6          3
                    78442              9     7          3
                    78442              9     8          3
                    28037              1     1          4
                    27983              3     2          4
                    28065              3     3          4
                    28065              3     4          4
                    25969              1     5          4
                    25915              3     6          4
                    25893              3     7          4
                    25893              3     8          4
 @TRPS-I, Welcome to TRPS. Watch your RUs ! 
 @TRPS-I, Method is CCSD(T) 
 @TRPS-I, Calculation type is energy 
 @TRPS-I, Reference function information : 
          Reference function is Hartree-Fock 
          Reference function is RHF Hartree-Fock 
 @TRPS-I, INT1 is true 
 @TRPS-I, INT2 is false 
 @TRPS-I, Lengths of ijka integrals. #1       1334
                                     #2       1334
                                     #3       3304
                                     #4       3304
                                    Max       3304
 @INITRP-I, Initializing W intermediate lists. 
 @SETOOOV-I, Some OOOV lists are being transposed. 
 @TRPS-I, Available memory in integer words   1499959040
          Number of pre-allocated words for TRPS2        48601
          Number of free words for TRPS2   1499910439
 @TRPS2-I, Spin case AAB 
 @TRPS2-I, Number of free integer words 1499910439
           Number of free double  words 1499910439
           Ratio                                 1
 @TRPS2-I, E4TBAA      -0.007294590096
  @TRPS2-I, E4TAAA  -3.151081322633626E-004
 @TRPS2-I, E5ST A    0.000118981182610
 @TRPS2-I, E5ST B    0.000081941563360
 @SETOOOV-I, Some OOOV lists are being transposed. 
 @CCENRG-I, CCSD/QCISD energy will now be evaluated. 
 @CCENRG-I, Correlation energies. ECCAA       -0.032491129561
                                  ECCBB        0.000000000000
                                  ECCAB       -0.293880570378
                                  Total       -0.358862829501
 @CCENRG-I, Reference   energy     -78.066423346205
            CCSD/QCISD energy      -78.425286175705
          E4T (T(CCSD)) = -0.015219396456
          E5ST          =  0.000401845492
          E4ST          =  0.000000000000
          In other words  
          <T3[2](Dagger) D3  T3[2]> = -0.015219396456
          <T1   (Dagger) Q1 WT3[2]> =  0.000401845492
          <T2   (Dagger) Q2 FT3[2]> =  0.000000000000
        E(CCSD)           =     -78.425286175705
        E(CCSD + T(CCSD)) =     -78.440505572162
        E(CCSD(T))        =     -78.440103726670
  @CHECKOUT-I, Total execution time (CPU/WALL):        3.25/       4.70 seconds.
--executable xvcc finished with status     0 in        4.84 seconds (walltime).
  The final electronic energy is       -78.440103726669591 a.u. 
  This computation required                           62.79 seconds (walltime).
