 --invoking executable--
/home/nike/cfour_v2.00beta/cfour_v2.00beta/bin/xjoda


   *************************************************************************
         <<<     CCCCCC     CCCCCC   |||     CCCCCC     CCCCCC   >>>
       <<<      CCC        CCC       |||    CCC        CCC         >>>
      <<<      CCC        CCC        |||   CCC        CCC            >>>
    <<<        CCC        CCC        |||   CCC        CCC              >>>
      <<<      CCC        CCC        |||   CCC        CCC            >>>
       <<<      CCC        CCC       |||    CCC        CCC         >>>
         <<<     CCCCCC     CCCCCC   |||     CCCCCC     CCCCCC   >>>
   *************************************************************************

     ****************************************************************
     * CFOUR Coupled-Cluster techniques for Computational Chemistry *
     ****************************************************************
 

   Department of Chemistry                Institut fuer Physikalische Chemie
   University of Texas at Austin          Universitaet Mainz
   Austin, TX  78712, USA                 D-55099 Mainz, Germany
 
                       Version 2.00beta
 
                     blg8442.int.ets1.calculquebec.ca                  
                     Mo 24. Feb 22:56:31 EST 2020                      
                     integer*8 version is running
 
********************************************************************************
*                          Input from ZMAT file                                *
********************************************************************************
TITLE                                                                           
C                                                                               
O 1 R                                                                           
X 1 D 2 A90                                                                     
O 1 R 3 A90 2 D180                                                              
                                                                                
R=2.19605072943                                                                 
D=1                                                                             
A90=90                                                                          
D180=180                                                                        
A=180.0                                                                         
                                                                                
*ACES2(CALC=CCSD(T)                                                             
UNITS=BOHR                                                                      
#GEOM=1.1621*10/5.29177210903_NISTcitesHerzberg66butCRCgives1.160andWikiGives1.1
#COORD=CARTESIAN                                                                
COORD=INTERNAL                                                                  
PRINT=4                                                                         
JODA_PRINT=4                                                                    
INPUT_MRCC=OFF                                                                  
#CC_PROG=MRCC                                                                   
FROZEN_CORE=ON                                                                  
#DROPMO=1>5                                                                     
CONTRACTION=GENERAL                                                             
#CONTRACTION=SEGMENTED                                                          
RELATIVISTIC=OFF                                                                
#EXCITE=EOMEE                                                                   
#ESTATE_CONV=5                                                                  
#ESTATE_SYM=2/2/2/2/2/2/2/2                                                     
XFORM_TOL=18                                                                    
SAVE_INTS=ON                                                                    
SCF_EXPORDER=6                                                                  
SCF_EXPSTART=5                                                                  
#SCF_DAMPING=1000                                                               
SCF_EXTRAPOLATION=ON                                                            
SCF_CONV=12                                                                     
SCF_MAXCYC=99999                                                                
CC_CONV=9                                                                       
CC_MAXCYC=999                                                                   
T3_EXTRAPOL=ON                                                                  
REFERENCE=RHF                                                                   
CHARGE=+0                                                                       
MULT=1                                                                          
ABCDTYPE=STANDARD                                                               
#OCCUPATION=3-2-2-0-1-0-0-0/3-1-1-0-1-0-0-0                                     
MEM=12                                                                          
MEM_UNIT=GB                                                                     
BASIS=SPECIAL)                                                                  
                                                                                
C:def2-TZVPP                                                                    
O:def2-TZVPP                                                                    
O:def2-TZVPP                                                                    
                                                                                
********************************************************************************
  @GTFLGS-W, Keyword #GEOM not known and is ignored.
  @GTFLGS-W, Keyword #COORD not known and is ignored.
  @GTFLGS-W, Keyword #CC_PROG not known and is ignored.
  @GTFLGS-W, Keyword #DROPMO not known and is ignored.
  @GTFLGS-W, Keyword #CONTRACTION not known and is ignored.
  @GTFLGS-W, Keyword #EXCITE not known and is ignored.
  @GTFLGS-W, Keyword #ESTATE_CONV not known and is ignored.
  @GTFLGS-W, Keyword #ESTATE_SYM not known and is ignored.
  @GTFLGS-W, Keyword #SCF_DAMPING not known and is ignored.
  @GTFLGS-W, Keyword #OCCUPATION not known and is ignored.
    -------------------------------------------------------------------
                    CFOUR Control Parameters 
    -------------------------------------------------------------------
        External           Internal           Value            Units
          Name               Name
    -------------------------------------------------------------------
       ABCDTYPE             IABCDT         STANDARD     [  0]   ***   
       ANHARMONIC           IANHAR         OFF          [  0]   ***   
       ANH_ALGORIT          IANALG         STANDARD     [  0]   ***   
       ANH_DERIVAT          IANDER         SECOND       [  1]   ***   
       ANH_STEPSIZ          ICUBST             50000          x 10-6  
       ANH_SYMMETR          IANHSM         ABELIAN      [  0]   ***   
       AO_LADDERS           IAOLAD         SINGLEPASS   [  1]   ***   
       BASIS                IBASIS         SPECIAL      [  0]   ***   
       BREIT                IBREIT         OFF          [  0]   ***   
       BRUCK_CONV           IBRTOL          10D-  4             ***   
       BRUECKNER            IBRKNR             OFF      [  0]   ***   
       BUFFERSIZE           IBUFFS            600               ***   
       CACHE_RECS           ICHREC             10               ***   
       CALCLEVEL            ICLLVL           CCSD(T)    [ 22]   ***   
       CCORBOPT             ICCORB             OFF      [  0] x 0.01  
       CC_CONV              ICCCNV          10D-  9             ***   
       CC_EXPORDER          ICCEOR              5               ***   
       CC_EXTRAPOL          ICCEXT             DIIS     [  1]   ***   
       CC_MAXCYC            ICCCYC            999              cycles 
       CC_PROGRAM           ICCPRO         VCC          [  0]   ***   
       CHARGE               ICHRGE              0               ***   
       CHOLESKY             ICHOLE         OFF          [  0]   ***   
       CIS_CONV             ICISTL              5               ***   
       COMM_SIZE            IPSIZE            ***               ***   
       CONSTANT             ICONST         OLD          [  1]   ***   
       CONTINUUM            ICONTU         NONE         [  0]   ***   
       CONTRACTION          ICNTYP          GENERAL     [  1]   ***   
       COORDINATES          ICOORD         INTERNAL     [  0]   ***   
       CPHF_CONVER          ICPHFT          10D- 16             ***   
       CPHF_MAXCYC          ICPHFC             64              cycles 
       CUBIC                ICUBIC         OFF          [  0]   ***   
       CURVILINEAR          ICURVY            OFF       [  0]   ***   
       DBOC                 IDBOC          OFF          [  0]   ***   
       DCT                  IDCT           OFF          [  0]   ***   
       DERIV_LEV            IDRLVL            ZERO      [  0]   ***   
       DIAG_MRCC            IEOMST          10D-  0             ***   
       DIFF_TYPE            IDIFTY         RELAXED      [  0]   ***   
       DIRECT               IDIRCT         OFF          [  0]   ***   
       DROPMO               IDRPMO      NONE         
       ECP                  IECP           OFF          [  0]   ***   
       EIGENVECTOR          IVEC                1               ***   
       EL_ANHARM            IELANH         OFF          [  0]   ***   
       EOMFOLLOW            IEOMSR         ENERGY       [  0]   ***   
       EOM_MRCC             IMRCCE         NEW          [  1]   ***   
       EOM_NONIT            EOMNON         OFF          [  0]   ***   
       EOM_NSING            IEOMSI          10D-  0             ***   
       EOM_NSTATES          IMRCCD         DAVIDSON     [  0]   ***   
       EOM_NTRIP            IEOMTR          10D-  0             ***   
       EOM_ORDER            IEXORD         ENERGY       [  0]   ***   
       ESTATE_CONV          IEXTOL          10D-  5             ***   
       ESTATE_DIAG          IEXDIG         ITERATIVE    [  0]   ***   
       ESTATE_LOCK          IESLOC         ON           [  1]   ***   
       ESTATE_MAXC          IEXMXC             20               ***   
       ESTATE_PROP          IEXPRP         OFF          [  0]   ***   
       EVAL_HESS            IRECAL              0            # of cyc.
       EXCITATION           IEXCIT              0               ***   
       EXCITE               IEXCIT         NONE         [  0]   ***   
       FCGRADNEW            IFCGNW         OFF          [  0]   ***   
       FC_FIELD             IFINFC              0             x 10-6  
       FD_CALTYPE           IFDCAL         GRADONLY     [  0]   ***   
       FD_PROJECT           IFDPRJ         OFF          [  1]   ***   
       FD_STEPSIZE          IDISFD              0            10-4 bohr
       FD_USEGROUP          IFDGRP         FULL         [  0]   ***   
       FILE_RECSIZ          IFLREC              4096           words  
       FINITE_PERT          IFIPER              0             x 10-6  
       FIXGEOM              IFIXGM         OFF          [  0]   ***   
       FOCK                 IFOCK          AO           [  1]   ***   
       FREQ_ALGORI          IVIALG         STANDARD     [  0]   ***   
       FROZEN_CORE          IFROCO         ON           [  1]   ***   
       FROZEN_VIRT          IFROVI         OFF          [  0]   ***   
       GAMMA_ABCD           IGABCD         STORE        [  0]   ***   
       GAMMA_ABCI           IGABCI         STORE        [  0]   ***   
       GENBAS_1             IGNBS1              0               ***   
       GENBAS_2             IGNBS2              0               ***   
       GENBAS_3             IGNBS3              0               ***   
       GENBAS_4             IGNBS4              0               ***   
       GEO_CONV             ICONTL              5              H/bohr 
       GEO_MAXCYC           IOPTCY             50               ***   
       GEO_MAXSTEP          IMXSTP            300            millibohr
       GEO_METHOD           INR            SINGLE_POINT [  5]   ***   
       GIAO                 IGIAO          OFF          [  1]   ***   
       GIMIC                IGIMIC         OFF          [  0]   ***   
       GRID                 IGRID          OFF          [  0]   ***   
       GRID_ALGO            IGALGO         SERIAL       [  0]   ***   
       GUESS                IGUESS            MOREAD    [  0]   ***   
       HBAR                 IHBAR              OFF      [  0]   ***   
       HESS_TYPE            IHESTP         SCF          [  0]   ***   
       HF2_FILE             IHF2Fl         USE          [  1]   ***   
       HFSTABILITY          ISTABL         OFF          [  0]   ***   
       INCORE               INCORE             OFF      [  0]   ***   
       INPUT_MRCC           IMRCC          OFF          [  0]   ***   
       INTEGRALS            INTTYP             VMOL     [  1]   ***   
       JODA_PRINT           IJPRNT              4               ***   
       LINDEP_TOL           ILINDP              8               ***   
       LINEQ_CONV           IZTACN          10D-  7           cycles  
       LINEQ_EXPOR          ILMAXD              5               ***   
       LINEQ_MAXCY          ILMAXC             50               ***   
       LINEQ_TYPE           ILTYPE         DIIS         [  1]   ***   
       LOCK_ORBOCC          ILOCOC             OFF      [  0]   ***   
       MEMORY_SIZE          IMEMSZ         *********           words  
       MEM_UNIT             IMEMU          GB           [  3]   ***   
       MRCC                 IMRCCC         OFF          [  0]   ***   
       MULTIPLICTY          IMULTP              1               ***   
       NEGEVAL              IDIE             ABORT      [  0]   ***   
       NEWNORM              INEWNO         OFF          [  0]   ***   
       NON-HF               INONHF             OFF      [  0]   ***   
       NTOP_TAMP            ITOPT2             15               ***   
       NUC_MODEL            INUCMO         POINT        [  0]   ***   
       OCCUPATION           IOCCU   ESTIMATED BY SCF 
       OPEN-SHELL           IOPEN          SPIN-ORBITAL [  0]   ***   
       ORBITALS             IORBTP           STANDARD   [  0]   ***   
       PARALLEL             IPARAL         ON           [  1]   ***   
       PARA_INT             IPINTS         ON           [  1]   ***   
       PARA_PRINT           IPPRIN              0               ***   
       PERT_ORB             IPTORB         STANDARD     [  0]   ***   
       POINTS               IGRDFD              0               ***   
       PRINT                IPRNT               4               ***   
       PROPS                IPROPS             OFF      [  0]   ***   
       PROP_INTEGR          IINTYP         INTERNAL     [  0]   ***   
       PSI                  IPSI           OFF          [  0]   ***   
       QUARTIC              IQUART         OFF          [  0]   ***   
       RAMAN_INT            IRAMIN         OFF          [  0]   ***   
       RAMAN_ORB            IRAMRE         UNRELAXED    [  0]   ***   
       RDO                  IRDOFM             OFF      [  0]   ***   
       REFERENCE            IREFNC             RHF      [  0]   ***   
       RELATIVIST           IRELAT         OFF          [  0]   ***   
       RELAX_DENS           IRDENS             OFF      [  0]   ***   
       RESET_FLAGS          IRESET             OFF      [  0]   ***   
       RESTART_CC           ICCRES         OFF          [  0]   ***   
       ROT_EVEC             ROTVEC              0               ***   
       SAVE_INTS            ISVINT              ON      [  1]   ***   
       SCALE_ON             ISTCRT              0               ***   
       SCF_CONV             ISCFCV          10D- 12             ***   
       SCF_DAMPING          IDAMP               0             x 10-3  
       SCF_EXPORDE          IRPPOR              6               ***   
       SCF_EXPSTAR          IRPPLS              5               ***   
       SCF_EXTRAPO          IRPP                ON      [  1]   ***   
       SCF_MAXCYC           ISCFCY            ***              cycles 
       SCF_NOSTOP           ISCFST         OFF          [  0]   ***   
       SCF_PRINT            ISCFPR              0               ***   
       SD_FIELD             IFINSD              0             x 10-6  
       SEQUENCE             ISEQUE         OFF          [  0]   ***   
       SOPERT               IPERSO         OFF          [  0]   ***   
       SPHERICAL            IDFGHI             ON       [  1]   ***   
       SPINORBIT            ISOCAL         OFF          [  0]   ***   
       SPINROTATIO          ISRCON         OFF          [  0]   ***   
       SPIN_FLIP            ISPFLP         OFF          [  0]   ***   
       SPIN_ORBIT           ISPORB         OFF          [  0]   ***   
       SPIN_SCAL            ISCSMP         OFF          [  0]   ***   
       SUBGROUP             ISUBGP         DEFAULT      [  0]   ***   
       SUBGRPAXIS           ISBXYZ         X            [  0]   ***   
       SYMMETRY             ISYM             ON         [  0]   ***   
       SYM_CHECK            ISYMCK         OVERRIDE     [  1]   ***   
       T3_EXTRAPOL          IT3EXT         ON           [  1]   ***   
       TAMP_SUM             IEVERY              5               ***   
       TESTSUITE            ITESTS         OFF          [  0]   ***   
       THERMOCH             ITHERM         OFF          [  0]   ***   
       TOL_CHOLESK          ITOLCH          10D-  4             ***   
       TRANGRAD             IRESRM         OFF          [  0]   ***   
       TRANS_INV            ITRAIN         USE          [  0]   ***   
       TREAT_PERT           ITREAT         SIMULTANEOUS [  0]   ***   
       UIJ_THRESHO          IUIJTH              1               ***   
       UNITS                IUNITS         BOHR         [  1]   ***   
       UNOS                 IUNOS          OFF          [  0]   ***   
       UPDATE_HESS          IHUPDT         ON           [  1]   ***   
       VIBPHASE             ISETPH         STANDARD     [  0]   ***   
       VIBRATION            IVIB              NO        [  0]   ***   
       VIB_ALGORIT          IGEALG         STANDARD     [  0]   ***   
       VNATORB              IVNORB         OFF          [  0]   ***   
       VTRAN                IVTRAN         FULL/PARTIAL [  0]   ***   
       XFIELD               IXEFLD              0             x 10-6  
       XFORM_TOL            IXFTOL          10D- 18             ***   
       YFIELD               IYEFLD              0             x 10-6  
       ZFIELD               IZEFLD              0             x 10-6  
    -------------------------------------------------------------------
   4 entries found in Z-matrix 
   Job Title : TITLE                                                                           
 Variable names read by FETCHZ
  1           
  2           
  3           
  4 R         
  5           
  6           
  7 D         
  8 A90       
  9           
 10 R         
 11 A90       
 12 D180      
 Atomic symbols read by FETCHZ
  1 C    
  2 O    
  3 X    
  4 O    
 Connectivity matrix read by FETCHZ
  1   0
  2   0
  3   0
  4   1
  5   0
  6   0
  7   1
  8   2
  9   0
 10   1
 11   3
 12   2
   Symbol A     not found in Z-matrix.
   There are  4 unique internal coordinates.
   Of these,  0 will be optimized.
   User supplied Z-matrix: 
--------------------------------------------------------------------------------
       SYMBOL    BOND      LENGTH    ANGLE     ANGLE     DIHED     ANGLE
                  TO      (ANGST)    WRT      (DEG)      WRT      (DEG)
--------------------------------------------------------------------------------
        C    
        O          1         R    
        X          1         D          2        A90  
        O          1         R          3        A90        2        D180 
                  *Initial values for internal coordinates* 
                      Name             Value
                        R               2.1960507294
                        D               1.0000000000
                        A90            90.0000000000
                        D180          180.0000000000
--------------------------------------------------------------------------------
  1  C          6    12.00000
  2  O          8    15.99491
  3  X          0     0.00000
  4  O          8    15.99491
   12.0000000000
   15.9949146300
    0.0000000000
   15.9949146300
 After translation to center of mass coordinates 
       -0.000000000000   -0.000000000000    0.000000000000
       -0.000000000000   -0.000000000000    2.196050729430
        1.000000000000   -0.000000000000    0.000000000000
        0.000000000000    0.000000000000   -2.196050729430
  Inertia tensor (amu*bohr**2)
  154.27539   -0.00000    0.00000
   -0.00000  154.27539    0.00000
    0.00000    0.00000    0.00000
    Inertia tensor:
      154.275391993949   -0.000000000000    0.000000000000
       -0.000000000000  154.275391993949    0.000000000000
        0.000000000000    0.000000000000    0.000000000000
    Principal axis orientation for molecular system: 
       -0.000000000000   -0.000000000000   -0.000000000000
        0.000000000000   -0.000000000000   -2.196050729430
        1.000000000000   -0.000000000000   -0.000000000000
        0.000000000000    0.000000000000    2.196050729430
    Diagonalized inertia tensor:
      154.275391993949    0.000000000000    0.000000000000
        0.000000000000  154.275391993949    0.000000000000
        0.000000000000    0.000000000000    0.000000000000
    Eigenvectors of inertia tensor: 
        1.000000000000    0.000000000000    0.000000000000
        0.000000000000    1.000000000000    0.000000000000
        0.000000000000    0.000000000000   -1.000000000000
 factor:   60.1997200000000     
   Rotational constants (in cm-1): 
          0.3902094768             0.3902094768
   Rotational constants (in MHz): 
      11698.1874587023         11698.1874587023
  @SYMMETRY-I, Handedness of inertial frame:-1.00000
  @SYMMETRY-I, Sense of inertial frame y-axis will be changed.
  @SYMMETRY-I, The symmetry group is 2-fold degenerate.
  @SYMMETRY-I, The molecule belongs to a point group with doubly degenerate representations.
  @SYMMETRY-I, The molecule is linear.
   Principal axis orientation for molecule:
       -0.000000000000    0.000000000000   -0.000000000000
        0.000000000000    0.000000000000   -2.196050729430
        1.000000000000    0.000000000000   -0.000000000000
        0.000000000000   -0.000000000000    2.196050729430
   Reflection in plane  3 is a valid symmetry operation.
   Rotation about  3 is a valid symmetry operation 
   Reflection in plane  2 is a valid symmetry operation.
   Rotation about  2 is a valid symmetry operation 
   Reflection in plane  1 is a valid symmetry operation.
   Rotation about  1 is a valid symmetry operation 
   The molecule possesses an inversion center. 
  Symmetry bits:    7   7   1
********************************************************************************
   The full molecular point group is DXh .
   The largest Abelian subgroup of the full molecular point group is D2h .
   The computational point group is D2h .
********************************************************************************
--------------------------------------------------------------------------------
   Analysis of internal coordinates specified by Z-matrix 
--------------------------------------------------------------------------------
   *The nuclear repulsion energy is   58.286449527157906 a.u.
   *There are   2 degrees of freedom within the tot. symm. molecular subspace.
   *Z-matrix requests optimization of   0 coordinates.
   *The optimization is constrained.
   *The following   1 parameters can have non-zero 
    derivatives within the totally symmetric subspace:
             R    [ 4]
   *The following   0 parameters are to be optimized:

   *The following coordinates must be varied in an  unconstrained optimization.
             R    [ 4]
--------------------------------------------------------------------------------
 ----------------------------------------------------------------
 Z-matrix   Atomic            Coordinates (in bohr)
  Symbol    Number           X              Y              Z
 ----------------------------------------------------------------
     C         6        -0.00000000     0.00000000    -0.00000000
     O         8         0.00000000     0.00000000    -2.19605073
     X         0         1.00000000     0.00000000    -0.00000000
     O         8         0.00000000    -0.00000000     2.19605073
 ----------------------------------------------------------------
   Interatomic distance matrix (Angstroms) 
 
                 C             O             X             O    
                [ 1]        [ 2]        [ 3]        [ 4]
  C    [ 1]     0.00000
  O    [ 2]     1.16210     0.00000
  X    [ 3]     0.52918     1.27691     0.00000
  O    [ 4]     1.16210     2.32420     1.27691     0.00000
  Inertia tensor (amu*bohr**2)
  154.27539    0.00000    0.00000
    0.00000  154.27539    0.00000
    0.00000    0.00000    0.00000
   Rotational constants (in cm-1): 
          0.3902094768             0.0000000000
   Rotational constants (in MHz): 
      11698.1874587023             0.0000000000
  @GTFLGS-W, Keyword #GEOM not known and is ignored.
  @GTFLGS-W, Keyword #COORD not known and is ignored.
  @GTFLGS-W, Keyword #CC_PROG not known and is ignored.
  @GTFLGS-W, Keyword #DROPMO not known and is ignored.
  @GTFLGS-W, Keyword #CONTRACTION not known and is ignored.
  @GTFLGS-W, Keyword #EXCITE not known and is ignored.
  @GTFLGS-W, Keyword #ESTATE_CONV not known and is ignored.
  @GTFLGS-W, Keyword #ESTATE_SYM not known and is ignored.
  @GTFLGS-W, Keyword #SCF_DAMPING not known and is ignored.
  @GTFLGS-W, Keyword #OCCUPATION not known and is ignored.
  There are   3 frozen-core orbitals.
  There are   93 basis functions.
 @GEOPT-W, Archive file not created for single-point calculation.
  @CHECKOUT-I, Total execution time (CPU/WALL):        0.58/       1.11 seconds.
--executable xjoda finished with status     0 in        3.76 seconds (walltime).
 --invoking executable--
/home/nike/cfour_v2.00beta/cfour_v2.00beta/bin/xvmol
 Serial version of molecule started
********************************************************************************
                    Input from MOL file
********************************************************************************
INTGRL        1    0    1    0    0    0    0    0    0                         
         *** CFOUR Program System (Release V0.1) ***                            
TITLE                                                                           
    2    3 X  Y   Z   0.10E-08              0    0                              
   9999.00      3.00                                                            
          6.00000000    1    4    1    1    1    1                              
C #1  -0.000000000000000   0.000000000000000  -0.000000000000000                
   11    5                                                                      
   13575.3496820000       2.224581435200000E-004  0.000000000000000E+000        
  0.000000000000000E+000  0.000000000000000E+000  0.000000000000000E+000        
   2035.23336800000       1.723273825200000E-003  0.000000000000000E+000        
  0.000000000000000E+000  0.000000000000000E+000  0.000000000000000E+000        
   463.225623590000       8.925571531400001E-003  0.000000000000000E+000        
  0.000000000000000E+000  0.000000000000000E+000  0.000000000000000E+000        
   131.200195980000       3.572798450200000E-002  0.000000000000000E+000        
  0.000000000000000E+000  0.000000000000000E+000  0.000000000000000E+000        
   42.8530158910000       0.110762599310000       0.000000000000000E+000        
  0.000000000000000E+000  0.000000000000000E+000  0.000000000000000E+000        
   15.5841857660000       0.242956276260000       0.000000000000000E+000        
  0.000000000000000E+000  0.000000000000000E+000  0.000000000000000E+000        
   6.20671385080000       0.000000000000000E+000  0.414402634480000             
  0.000000000000000E+000  0.000000000000000E+000  0.000000000000000E+000        
   2.57648965270000       0.000000000000000E+000  0.237449686550000             
  0.000000000000000E+000  0.000000000000000E+000  0.000000000000000E+000        
  0.576963394190000       0.000000000000000E+000  0.000000000000000E+000        
   1.00000000000000       0.000000000000000E+000  0.000000000000000E+000        
  0.229728313580000       0.000000000000000E+000  0.000000000000000E+000        
  0.000000000000000E+000   1.00000000000000       0.000000000000000E+000        
  9.516444002799999E-002  0.000000000000000E+000  0.000000000000000E+000        
  0.000000000000000E+000  0.000000000000000E+000   1.00000000000000             
    6    3                                                                      
   34.6972322440000       5.333365780500000E-003  0.000000000000000E+000        
  0.000000000000000E+000                                                        
   7.95826228260000       3.586410909200000E-002  0.000000000000000E+000        
  0.000000000000000E+000                                                        
   2.37808268830000       0.142158733290000       0.000000000000000E+000        
  0.000000000000000E+000                                                        
  0.814332081830000       0.342704718450000       0.000000000000000E+000        
  0.000000000000000E+000                                                        
  0.288875472530000       0.000000000000000E+000  0.464458224330000             
  0.000000000000000E+000                                                        
  0.100568236710000       0.000000000000000E+000  0.000000000000000E+000        
  0.249557898740000                                                             
    2    2                                                                      
   1.09700000000000        1.00000000000000       0.000000000000000E+000        
  0.318000000000000       0.000000000000000E+000   1.00000000000000             
    1    1                                                                      
  0.761000000000000        1.00000000000000                                     
          8.00000000    1    4    1    1    1    1                              
O #2   0.000000000000000   0.000000000000000  -2.196050729430000                
   11    5                                                                      
   27032.3826310000       2.172630246500000E-004  0.000000000000000E+000        
  0.000000000000000E+000  0.000000000000000E+000  0.000000000000000E+000        
   4052.38713920000       1.683866219900000E-003  0.000000000000000E+000        
  0.000000000000000E+000  0.000000000000000E+000  0.000000000000000E+000        
   922.327227100000       8.739561626499999E-003  0.000000000000000E+000        
  0.000000000000000E+000  0.000000000000000E+000  0.000000000000000E+000        
   261.240709890000       3.523996880800000E-002  0.000000000000000E+000        
  0.000000000000000E+000  0.000000000000000E+000  0.000000000000000E+000        
   85.3546413510000       0.111535191150000       0.000000000000000E+000        
  0.000000000000000E+000  0.000000000000000E+000  0.000000000000000E+000        
   31.0350352450000       0.255889539610000       0.000000000000000E+000        
  0.000000000000000E+000  0.000000000000000E+000  0.000000000000000E+000        
   12.2608607280000       0.000000000000000E+000  0.397687309010000             
  0.000000000000000E+000  0.000000000000000E+000  0.000000000000000E+000        
   4.99870760050000       0.000000000000000E+000  0.246278494300000             
  0.000000000000000E+000  0.000000000000000E+000  0.000000000000000E+000        
   1.17031081580000       0.000000000000000E+000  0.000000000000000E+000        
   1.00000000000000       0.000000000000000E+000  0.000000000000000E+000        
  0.464747409940000       0.000000000000000E+000  0.000000000000000E+000        
  0.000000000000000E+000   1.00000000000000       0.000000000000000E+000        
  0.185045363570000       0.000000000000000E+000  0.000000000000000E+000        
  0.000000000000000E+000  0.000000000000000E+000   1.00000000000000             
    6    3                                                                      
   63.2749548010000       6.068510341800000E-003  0.000000000000000E+000        
  0.000000000000000E+000                                                        
   14.6270493790000       4.191257582400000E-002  0.000000000000000E+000        
  0.000000000000000E+000                                                        
   4.45012234560000       0.161538410880000       0.000000000000000E+000        
  0.000000000000000E+000                                                        
   1.52757996470000       0.357069513110000       0.000000000000000E+000        
  0.000000000000000E+000                                                        
  0.529351179430000       0.000000000000000E+000  0.447942075020000             
  0.000000000000000E+000                                                        
  0.174784212700000       0.000000000000000E+000  0.000000000000000E+000        
  0.244460696630000                                                             
    2    2                                                                      
   2.31400000000000        1.00000000000000       0.000000000000000E+000        
  0.645000000000000       0.000000000000000E+000   1.00000000000000             
    1    1                                                                      
   1.42800000000000        1.00000000000000                                     
FINISH                                                                          
 
********************************************************************************
 One- and two-electron integrals over symmetry-adapted AOs are calculated.

  Spherical harmonics are used.
  
   2 types of atoms
   3 symmetry operations

   Reflection in the YZ-plane
   Reflection in the XZ-plane
   Reflection in the XY-plane
  
  Integrals less than  0.10E-13 are neglected.

  Atomic type number  1 :
  -----------------------

    Nuclear charge:                        6
    number of symmetry independent atoms:  1
    highest orbital type:                  f

      1 groups of CGTOs of s type
      1 groups of CGTOs of p type
      1 groups of CGTOs of d type
      1 groups of CGTOs of f type

    nuclear coordinates (in a.u.) are :

    C #1        0.000000000000000        0.000000000000000        0.000000000000000
  
   Basis function not normalized: 
   Center (as ordered in MOL file):   1
   Angular Momentum type          : s
   Offset within angular momentum :  1
   <chi|chi>                      :    2.7261534527
   Basis function not normalized: 
   Center (as ordered in MOL file):   1
   Angular Momentum type          : s
   Offset within angular momentum :  2
   <chi|chi>                      :    1.5828883092
   Basis function not normalized: 
   Center (as ordered in MOL file):   1
   Angular Momentum type          : p
   Offset within angular momentum :  1
   <chi|chi>                      :    2.1238408295
   Basis function not normalized: 
   Center (as ordered in MOL file):   1
   Angular Momentum type          : p
   Offset within angular momentum :  2
   <chi|chi>                      :    2.1530461678
   Basis function not normalized: 
   Center (as ordered in MOL file):   1
   Angular Momentum type          : p
   Offset within angular momentum :  3
   <chi|chi>                      :    4.0070861513
  Atomic type number  2 :
  -----------------------

    Nuclear charge:                        8
    number of symmetry independent atoms:  1
    highest orbital type:                  f

      1 groups of CGTOs of s type
      1 groups of CGTOs of p type
      1 groups of CGTOs of d type
      1 groups of CGTOs of f type

    nuclear coordinates (in a.u.) are :

    O #2        0.000000000000000        0.000000000000000       -2.196050729430000
  
   Basis function not normalized: 
   Center (as ordered in MOL file):   2
   Angular Momentum type          : s
   Offset within angular momentum :  1
   <chi|chi>                      :    2.6340117148
   Basis function not normalized: 
   Center (as ordered in MOL file):   2
   Angular Momentum type          : s
   Offset within angular momentum :  2
   <chi|chi>                      :    1.6052797155
   Basis function not normalized: 
   Center (as ordered in MOL file):   2
   Angular Momentum type          : p
   Offset within angular momentum :  1
   <chi|chi>                      :    1.9804419117
   Basis function not normalized: 
   Center (as ordered in MOL file):   2
   Angular Momentum type          : p
   Offset within angular momentum :  2
   <chi|chi>                      :    2.2324315035
   Basis function not normalized: 
   Center (as ordered in MOL file):   2
   Angular Momentum type          : p
   Offset within angular momentum :  3
   <chi|chi>                      :    4.0906371199
   Internuclear distances (A) :

     for atom C #1 (coordinates :   0.00000   0.00000   0.00000)

     O #2   1     distance is  1.162

     for atom O #2 (coordinates :   0.00000   0.00000  -2.19605)

     O #2   5     distance is  2.324

   Group multiplication table :

         1   2   3   4   5   6   7   8
         2   1   4   3   6   5   8   7
         3   4   1   2   7   8   5   6
         4   3   2   1   8   7   6   5
         5   6   7   8   1   2   3   4
         6   5   8   7   2   1   4   3
         7   8   5   6   3   4   1   2
         8   7   6   5   4   3   2   1

   Gaussian basis information :

   atom                 exponent      coefficients

 C #1  1    S   
+                 1   13575.349682   0.0002225   0.0000000   0.0000000   0.0000000   0.0000000
                  2    2035.233368   0.0017233   0.0000000   0.0000000   0.0000000   0.0000000
                  3     463.225624   0.0089256   0.0000000   0.0000000   0.0000000   0.0000000
                  4     131.200196   0.0357280   0.0000000   0.0000000   0.0000000   0.0000000
                  5      42.853016   0.1107626   0.0000000   0.0000000   0.0000000   0.0000000
                  6      15.584186   0.2429563   0.0000000   0.0000000   0.0000000   0.0000000
                  7       6.206714   0.0000000   0.4144026   0.0000000   0.0000000   0.0000000
                  8       2.576490   0.0000000   0.2374497   0.0000000   0.0000000   0.0000000
                  9       0.576963   0.0000000   0.0000000   1.0000000   0.0000000   0.0000000
                 10       0.229728   0.0000000   0.0000000   0.0000000   1.0000000   0.0000000
                 11       0.095164   0.0000000   0.0000000   0.0000000   0.0000000   1.0000000

 C #1  1    X   
+                12      34.697232   0.0053334   0.0000000   0.0000000
                 13       7.958262   0.0358641   0.0000000   0.0000000
                 14       2.378083   0.1421587   0.0000000   0.0000000
                 15       0.814332   0.3427047   0.0000000   0.0000000
                 16       0.288875   0.0000000   0.4644582   0.0000000
                 17       0.100568   0.0000000   0.0000000   0.2495579

 C #1  1    Y   
+                18      34.697232   0.0053334   0.0000000   0.0000000
                 19       7.958262   0.0358641   0.0000000   0.0000000
                 20       2.378083   0.1421587   0.0000000   0.0000000
                 21       0.814332   0.3427047   0.0000000   0.0000000
                 22       0.288875   0.0000000   0.4644582   0.0000000
                 23       0.100568   0.0000000   0.0000000   0.2495579

 C #1  1    Z   
+                24      34.697232   0.0053334   0.0000000   0.0000000
                 25       7.958262   0.0358641   0.0000000   0.0000000
                 26       2.378083   0.1421587   0.0000000   0.0000000
                 27       0.814332   0.3427047   0.0000000   0.0000000
                 28       0.288875   0.0000000   0.4644582   0.0000000
                 29       0.100568   0.0000000   0.0000000   0.2495579

 C #1  1    XX  
+                30       1.097000   1.0000000   0.0000000
                 31       0.318000   0.0000000   1.0000000

 C #1  1    XY  
+                32       1.097000   1.0000000   0.0000000
                 33       0.318000   0.0000000   1.0000000

 C #1  1    XZ  
+                34       1.097000   1.0000000   0.0000000
                 35       0.318000   0.0000000   1.0000000

 C #1  1    YY  
+                36       1.097000   1.0000000   0.0000000
                 37       0.318000   0.0000000   1.0000000

 C #1  1    YZ  
+                38       1.097000   1.0000000   0.0000000
                 39       0.318000   0.0000000   1.0000000

 C #1  1    ZZ  
+                40       1.097000   1.0000000   0.0000000
                 41       0.318000   0.0000000   1.0000000

 C #1  1    F300
+                42       0.761000   1.0000000

 C #1  1    F210
+                43       0.761000   1.0000000

 C #1  1    F201
+                44       0.761000   1.0000000

 C #1  1    F120
+                45       0.761000   1.0000000

 C #1  1    F111
+                46       0.761000   1.0000000

 C #1  1    F102
+                47       0.761000   1.0000000

 C #1  1    F030
+                48       0.761000   1.0000000

 C #1  1    F021
+                49       0.761000   1.0000000

 C #1  1    F012
+                50       0.761000   1.0000000

 C #1  1    F003
+                51       0.761000   1.0000000

 O #2  1    S   
+                52   27032.382631   0.0002173   0.0000000   0.0000000   0.0000000   0.0000000
                 53    4052.387139   0.0016839   0.0000000   0.0000000   0.0000000   0.0000000
                 54     922.327227   0.0087396   0.0000000   0.0000000   0.0000000   0.0000000
                 55     261.240710   0.0352400   0.0000000   0.0000000   0.0000000   0.0000000
                 56      85.354641   0.1115352   0.0000000   0.0000000   0.0000000   0.0000000
                 57      31.035035   0.2558895   0.0000000   0.0000000   0.0000000   0.0000000
                 58      12.260861   0.0000000   0.3976873   0.0000000   0.0000000   0.0000000
                 59       4.998708   0.0000000   0.2462785   0.0000000   0.0000000   0.0000000
                 60       1.170311   0.0000000   0.0000000   1.0000000   0.0000000   0.0000000
                 61       0.464747   0.0000000   0.0000000   0.0000000   1.0000000   0.0000000
                 62       0.185045   0.0000000   0.0000000   0.0000000   0.0000000   1.0000000

 O #2  5    S   
+                63   27032.382631   0.0002173   0.0000000   0.0000000   0.0000000   0.0000000
                 64    4052.387139   0.0016839   0.0000000   0.0000000   0.0000000   0.0000000
                 65     922.327227   0.0087396   0.0000000   0.0000000   0.0000000   0.0000000
                 66     261.240710   0.0352400   0.0000000   0.0000000   0.0000000   0.0000000
                 67      85.354641   0.1115352   0.0000000   0.0000000   0.0000000   0.0000000
                 68      31.035035   0.2558895   0.0000000   0.0000000   0.0000000   0.0000000
                 69      12.260861   0.0000000   0.3976873   0.0000000   0.0000000   0.0000000
                 70       4.998708   0.0000000   0.2462785   0.0000000   0.0000000   0.0000000
                 71       1.170311   0.0000000   0.0000000   1.0000000   0.0000000   0.0000000
                 72       0.464747   0.0000000   0.0000000   0.0000000   1.0000000   0.0000000
                 73       0.185045   0.0000000   0.0000000   0.0000000   0.0000000   1.0000000

 O #2  1    X   
+                74      63.274955   0.0060685   0.0000000   0.0000000
                 75      14.627049   0.0419126   0.0000000   0.0000000
                 76       4.450122   0.1615384   0.0000000   0.0000000
                 77       1.527580   0.3570695   0.0000000   0.0000000
                 78       0.529351   0.0000000   0.4479421   0.0000000
                 79       0.174784   0.0000000   0.0000000   0.2444607

 O #2  5    X   
+                80      63.274955   0.0060685   0.0000000   0.0000000
                 81      14.627049   0.0419126   0.0000000   0.0000000
                 82       4.450122   0.1615384   0.0000000   0.0000000
                 83       1.527580   0.3570695   0.0000000   0.0000000
                 84       0.529351   0.0000000   0.4479421   0.0000000
                 85       0.174784   0.0000000   0.0000000   0.2444607

 O #2  1    Y   
+                86      63.274955   0.0060685   0.0000000   0.0000000
                 87      14.627049   0.0419126   0.0000000   0.0000000
                 88       4.450122   0.1615384   0.0000000   0.0000000
                 89       1.527580   0.3570695   0.0000000   0.0000000
                 90       0.529351   0.0000000   0.4479421   0.0000000
                 91       0.174784   0.0000000   0.0000000   0.2444607

 O #2  5    Y   
+                92      63.274955   0.0060685   0.0000000   0.0000000
                 93      14.627049   0.0419126   0.0000000   0.0000000
                 94       4.450122   0.1615384   0.0000000   0.0000000
                 95       1.527580   0.3570695   0.0000000   0.0000000
                 96       0.529351   0.0000000   0.4479421   0.0000000
                 97       0.174784   0.0000000   0.0000000   0.2444607

 O #2  1    Z   
+                98      63.274955   0.0060685   0.0000000   0.0000000
                 99      14.627049   0.0419126   0.0000000   0.0000000
                100       4.450122   0.1615384   0.0000000   0.0000000
                101       1.527580   0.3570695   0.0000000   0.0000000
                102       0.529351   0.0000000   0.4479421   0.0000000
                103       0.174784   0.0000000   0.0000000   0.2444607

 O #2  5    Z   
+               104      63.274955   0.0060685   0.0000000   0.0000000
                105      14.627049   0.0419126   0.0000000   0.0000000
                106       4.450122   0.1615384   0.0000000   0.0000000
                107       1.527580   0.3570695   0.0000000   0.0000000
                108       0.529351   0.0000000   0.4479421   0.0000000
                109       0.174784   0.0000000   0.0000000   0.2444607

 O #2  1    XX  
+               110       2.314000   1.0000000   0.0000000
                111       0.645000   0.0000000   1.0000000

 O #2  5    XX  
+               112       2.314000   1.0000000   0.0000000
                113       0.645000   0.0000000   1.0000000

 O #2  1    XY  
+               114       2.314000   1.0000000   0.0000000
                115       0.645000   0.0000000   1.0000000

 O #2  5    XY  
+               116       2.314000   1.0000000   0.0000000
                117       0.645000   0.0000000   1.0000000

 O #2  1    XZ  
+               118       2.314000   1.0000000   0.0000000
                119       0.645000   0.0000000   1.0000000

 O #2  5    XZ  
+               120       2.314000   1.0000000   0.0000000
                121       0.645000   0.0000000   1.0000000

 O #2  1    YY  
+               122       2.314000   1.0000000   0.0000000
                123       0.645000   0.0000000   1.0000000

 O #2  5    YY  
+               124       2.314000   1.0000000   0.0000000
                125       0.645000   0.0000000   1.0000000

 O #2  1    YZ  
+               126       2.314000   1.0000000   0.0000000
                127       0.645000   0.0000000   1.0000000

 O #2  5    YZ  
+               128       2.314000   1.0000000   0.0000000
                129       0.645000   0.0000000   1.0000000

 O #2  1    ZZ  
+               130       2.314000   1.0000000   0.0000000
                131       0.645000   0.0000000   1.0000000

 O #2  5    ZZ  
+               132       2.314000   1.0000000   0.0000000
                133       0.645000   0.0000000   1.0000000

 O #2  1    F300
+               134       1.428000   1.0000000

 O #2  5    F300
+               135       1.428000   1.0000000

 O #2  1    F210
+               136       1.428000   1.0000000

 O #2  5    F210
+               137       1.428000   1.0000000

 O #2  1    F201
+               138       1.428000   1.0000000

 O #2  5    F201
+               139       1.428000   1.0000000

 O #2  1    F120
+               140       1.428000   1.0000000

 O #2  5    F120
+               141       1.428000   1.0000000

 O #2  1    F111
+               142       1.428000   1.0000000

 O #2  5    F111
+               143       1.428000   1.0000000

 O #2  1    F102
+               144       1.428000   1.0000000

 O #2  5    F102
+               145       1.428000   1.0000000

 O #2  1    F030
+               146       1.428000   1.0000000

 O #2  5    F030
+               147       1.428000   1.0000000

 O #2  1    F021
+               148       1.428000   1.0000000

 O #2  5    F021
+               149       1.428000   1.0000000

 O #2  1    F012
+               150       1.428000   1.0000000

 O #2  5    F012
+               151       1.428000   1.0000000

 O #2  1    F003
+               152       1.428000   1.0000000

 O #2  5    F003
+               153       1.428000   1.0000000
108 93
  1  2  3  4  5  6  7  8  9****** 10 11 12 13 14 15 16 17 18 19 20 21******
 22 23*** 24 25 26 27 28*** 29 30 31 32 33 34 35*** 36 37 38 39 40*** 41 42
 43 44 45 46 47*** 48 49 50 51 52 53 54 55 56 57*** 58 59 60 61 62 63 64 65
 66 67 68 69****** 70 71*** 72 73 74 75 76 77 78 79 80*** 81 82 83 84 85 86
 87 88 89*** 90 91 92 93
1

             SYMMETRY TRANSFORMATION INFO
             93 SYMMETRY ADAPTED BASIS FUNCTIONS 


          irreducible representation number 1

    1    1  C #1     1s     1   1   1.0
    2    2  C #1     1s     1   2   1.0
    3    3  C #1     1s     1   3   1.0
    4    4  C #1     1s     1   4   1.0
    5    5  C #1     1s     1   5   1.0
    6    6  C #1     3d2-   3  15  -1.0  21  -1.0  25   2.0
    7    7  C #1     3d2-   3  16  -1.0  22  -1.0  26   2.0
    8    8  C #1     3d1+   2  15   1.0  21  -1.0
    9    9  C #1     3d1+   2  16   1.0  22  -1.0
   10   10  O #2     1s     2  37   1.0  38   1.0
   11   11  O #2     1s     2  39   1.0  40   1.0
   12   12  O #2     1s     2  41   1.0  42   1.0
   13   13  O #2     1s     2  43   1.0  44   1.0
   14   14  O #2     1s     2  45   1.0  46   1.0
   15   15  O #2     2pz    2  59   1.0  60  -1.0
   16   16  O #2     2pz    2  61   1.0  62  -1.0
   17   17  O #2     2pz    2  63   1.0  64  -1.0
   18   18  O #2     3d2-   6  65  -1.0  77  -1.0  85   2.0  66  -1.0  78  -1.0  86   2.0
   19   19  O #2     3d2-   6  67  -1.0  79  -1.0  87   2.0  68  -1.0  80  -1.0  88   2.0
   20   20  O #2     3d1+   4  65   1.0  77  -1.0  66   1.0  78  -1.0
   21   21  O #2     3d1+   4  67   1.0  79  -1.0  68   1.0  80  -1.0
   22   22  O #2     4f1-   6  93  -3.0 103  -3.0 107   2.0  94   3.0 104   3.0 108  -2.0
   23   23  O #2     4f3+   4  93   1.0 103  -1.0  94  -1.0 104   1.0


          irreducible representation number 2

   24    1  C #1     2px    1   6   1.0
   25    2  C #1     2px    1   7   1.0
   26    3  C #1     2px    1   8   1.0
   27    4  C #1     4f3-   3  27  -1.0  30  -1.0  32   4.0
   28    5  C #1     4f0    2  27   1.0  30  -3.0
   29    6  O #2     2px    2  47   1.0  48   1.0
   30    7  O #2     2px    2  49   1.0  50   1.0
   31    8  O #2     2px    2  51   1.0  52   1.0
   32    9  O #2     3d0    2  73   1.0  74  -1.0
   33   10  O #2     3d0    2  75   1.0  76  -1.0
   34   11  O #2     4f3-   6  89  -1.0  95  -1.0  99   4.0  90  -1.0  96  -1.0 100   4.0
   35   12  O #2     4f0    4  89   1.0  95  -3.0  90   1.0  96  -3.0


          irreducible representation number 3

   36    1  C #1     2py    1   9   1.0
   37    2  C #1     2py    1  10   1.0
   38    3  C #1     2py    1  11   1.0
   39    4  C #1     4f2-   3  28  -1.0  33  -1.0  35   4.0
   40    5  C #1     4f2+   2  28   3.0  33  -1.0
   41    6  O #2     2py    2  53   1.0  54   1.0
   42    7  O #2     2py    2  55   1.0  56   1.0
   43    8  O #2     2py    2  57   1.0  58   1.0
   44    9  O #2     3d2+   2  81   1.0  82  -1.0
   45   10  O #2     3d2+   2  83   1.0  84  -1.0
   46   11  O #2     4f2-   6  91  -1.0 101  -1.0 105   4.0  92  -1.0 102  -1.0 106   4.0
   47   12  O #2     4f2+   4  91   3.0 101  -1.0  92   3.0 102  -1.0


          irreducible representation number 4

   48    1  C #1     3d1-   1  17   1.0
   49    2  C #1     3d1-   1  18   1.0
   50    3  O #2     3d1-   2  69   1.0  70   1.0
   51    4  O #2     3d1-   2  71   1.0  72   1.0
   52    5  O #2     4f1+   2  97   1.0  98  -1.0


          irreducible representation number 5

   53    1  C #1     2pz    1  12   1.0
   54    2  C #1     2pz    1  13   1.0
   55    3  C #1     2pz    1  14   1.0
   56    4  C #1     4f1-   3  29  -3.0  34  -3.0  36   2.0
   57    5  C #1     4f3+   2  29   1.0  34  -1.0
   58    6  O #2     1s     2  37   1.0  38  -1.0
   59    7  O #2     1s     2  39   1.0  40  -1.0
   60    8  O #2     1s     2  41   1.0  42  -1.0
   61    9  O #2     1s     2  43   1.0  44  -1.0
   62   10  O #2     1s     2  45   1.0  46  -1.0
   63   11  O #2     2pz    2  59   1.0  60   1.0
   64   12  O #2     2pz    2  61   1.0  62   1.0
   65   13  O #2     2pz    2  63   1.0  64   1.0
   66   14  O #2     3d2-   6  65  -1.0  77  -1.0  85   2.0  66   1.0  78   1.0  86  -2.0
   67   15  O #2     3d2-   6  67  -1.0  79  -1.0  87   2.0  68   1.0  80   1.0  88  -2.0
   68   16  O #2     3d1+   4  65   1.0  77  -1.0  66  -1.0  78   1.0
   69   17  O #2     3d1+   4  67   1.0  79  -1.0  68  -1.0  80   1.0
   70   18  O #2     4f1-   6  93  -3.0 103  -3.0 107   2.0  94  -3.0 104  -3.0 108   2.0
   71   19  O #2     4f3+   4  93   1.0 103  -1.0  94   1.0 104  -1.0


          irreducible representation number 6

   72    1  C #1     3d0    1  19   1.0
   73    2  C #1     3d0    1  20   1.0
   74    3  O #2     2px    2  47   1.0  48  -1.0
   75    4  O #2     2px    2  49   1.0  50  -1.0
   76    5  O #2     2px    2  51   1.0  52  -1.0
   77    6  O #2     3d0    2  73   1.0  74   1.0
   78    7  O #2     3d0    2  75   1.0  76   1.0
   79    8  O #2     4f3-   6  89  -1.0  95  -1.0  99   4.0  90   1.0  96   1.0 100  -4.0
   80    9  O #2     4f0    4  89   1.0  95  -3.0  90  -1.0  96   3.0


          irreducible representation number 7

   81    1  C #1     3d2+   1  23   1.0
   82    2  C #1     3d2+   1  24   1.0
   83    3  O #2     2py    2  53   1.0  54  -1.0
   84    4  O #2     2py    2  55   1.0  56  -1.0
   85    5  O #2     2py    2  57   1.0  58  -1.0
   86    6  O #2     3d2+   2  81   1.0  82   1.0
   87    7  O #2     3d2+   2  83   1.0  84   1.0
   88    8  O #2     4f2-   6  91  -1.0 101  -1.0 105   4.0  92   1.0 102   1.0 106  -4.0
   89    9  O #2     4f2+   4  91   3.0 101  -1.0  92  -3.0 102   1.0


          irreducible representation number 8

   90    1  C #1     4f1+   1  31   1.0
   91    2  O #2     3d1-   2  69   1.0  70  -1.0
   92    3  O #2     3d1-   2  71   1.0  72  -1.0
   93    4  O #2     4f1+   2  97   1.0  98   1.0
  Nuclear repulsion energy :   58.2864495272 a.u.
  required memory for a1 array                5112368  words 
  required memory for a2 array                2103164  words 
 @GETMEM-I,  Allocated      70 MB of main memory.
  @MOLECU-I, One electron integrals (CPU/WALL):        0.03/       0.08 seconds.
  @TWOEL-I,      39896 integrals of symmetry type  I I I I
  @TWOEL-I,     279765 integrals of symmetry type  I J I J
  @TWOEL-I,     163190 integrals of symmetry type  I I J J
  @TWOEL-I,     536615 integrals of symmetry type  I J K L
  @TWOEL-I, Total number of 2-e integrals    1019466.
  @MOLECU-I, Two electron integrals (CPU/WALL):        0.92/       0.94 seconds.
  @CHECKOUT-I, Total execution time (CPU/WALL):        1.35/       2.08 seconds.
--executable xvmol finished with status     0 in        2.24 seconds (walltime).
 --invoking executable--
/home/nike/cfour_v2.00beta/cfour_v2.00beta/bin/xvmol2ja
 @GETMEM-I,  Allocated   11444 MB of main memory.
  @CHECKOUT-I, Total execution time (CPU/WALL):        0.02/       0.04 seconds.
--executable xvmol2ja finished with status     0 in        0.13 seconds (walltime).
 --invoking executable--
/home/nike/cfour_v2.00beta/cfour_v2.00beta/bin/xvscf
  There are   93 functions in the AO basis.

  There are 8 irreducible representations.

       Irrep        # of functions
         1                 23
         2                 12
         3                 12
         4                  5
         5                 19
         6                  9
         7                  9
         8                  4


  Parameters for SCF calculation: 
        SCF reference function:  RHF  
  Maximum number of iterations: ****
     Full symmetry point group: DXh 
     Computational point group: D2h 
        Initial density matrix: MOREAD                 
     SCF convergence tolerance: 10**(-12)
  DIIS convergence acceleration:  ON
          Latest start for DIIS:   5
                     DIIS order:   6

  Memory information:     408246 words required.
  Fock matrices are constructed from AO integral file.
 @GETMEM-I,  Allocated       3 MB of main memory.
  Initialization and symmetry analysis required      0.023 seconds.

  @INITGES-I, Occupancies from core Hamiltonian:

          Alpha population by irrep:   4    1    1    0    3    1    1    0
           Beta population by irrep:   4    1    1    0    3    1    1    0


 total no. of electrons in initial guess :  0.000000000000000E+000
  --------------------------------------------------------------------
  Iteration         Total Energy            Largest Density Difference
  --------------------------------------------------------------------
       0            58.286449527157906              0.0000000000D+00
   current occupation vector 
     4  1  1  0  3  1  1  0
     4  1  1  0  3  1  1  0
  processed                  39896  ao basis integrals from 
                    67  buffers.
  processed                 163190  ao basis integrals from 
                   272  buffers.
  processed                 279765  ao basis integrals from 
                   467  buffers.
       1          -165.693218179523882              0.4314323371D+01
   current occupation vector 
     4  1  1  0  3  1  1  0
     4  1  1  0  3  1  1  0
  processed                  39896  ao basis integrals from 
                    67  buffers.
  processed                 163190  ao basis integrals from 
                   272  buffers.
  processed                 279765  ao basis integrals from 
                   467  buffers.
       2          -171.733896430769903              0.2091390242D+02
   current occupation vector 
     4  2  2  0  3  0  0  0
     4  2  2  0  3  0  0  0
  processed                  39896  ao basis integrals from 
                    67  buffers.
  processed                 163190  ao basis integrals from 
                   272  buffers.
  processed                 279765  ao basis integrals from 
                   467  buffers.
       3          -178.971392317295511              0.2096369961D+02
   current occupation vector 
     4  1  1  0  3  1  1  0
     4  1  1  0  3  1  1  0
  processed                  39896  ao basis integrals from 
                    67  buffers.
  processed                 163190  ao basis integrals from 
                   272  buffers.
  processed                 279765  ao basis integrals from 
                   467  buffers.
       4          -180.628335617597116              0.1778359091D+02
   current occupation vector 
     5  1  1  0  3  0  1  0
     5  1  1  0  3  0  1  0
 
 sum over diagonal and offdiagdiagonal of C(T)*S*C for irrep
                     1
 -7.993605777301127E-015  1.378412093897295E-013
 reorthoganalization of MOs is carried out
 sum over diagonal and offdiagdiagonal of C(T)*S*C for irrep
                     1
 -6.938893903907228E-014  9.531524044989547E-014
 
 sum over diagonal and offdiagdiagonal of C(T)*S*C for irrep
                     2
 -1.130207039068409E-013  1.097182541522958E-014
 reorthoganalization of MOs is carried out
 sum over diagonal and offdiagdiagonal of C(T)*S*C for irrep
                     2
 -1.998401444325282E-015  4.995705472027730E-015
 
 sum over diagonal and offdiagdiagonal of C(T)*S*C for irrep
                     3
  8.548717289613705E-014 -3.750217652518105E-014
 reorthoganalization of MOs is carried out
 sum over diagonal and offdiagdiagonal of C(T)*S*C for irrep
                     3
 -2.331468351712829E-015 -1.129735489603786E-015
 
 sum over diagonal and offdiagdiagonal of C(T)*S*C for irrep
                     4
  6.883382752675971E-015 -1.848190779948966E-015
 reorthoganalization of MOs is carried out
 sum over diagonal and offdiagdiagonal of C(T)*S*C for irrep
                     4
  0.000000000000000E+000 -3.689550202153267E-018
 
 sum over diagonal and offdiagdiagonal of C(T)*S*C for irrep
                     5
 -3.558264793923627E-013  2.581542206404887E-013
 reorthoganalization of MOs is carried out
 sum over diagonal and offdiagdiagonal of C(T)*S*C for irrep
                     5
 -4.507505479978136E-014  1.404708114903239E-014
 
 sum over diagonal and offdiagdiagonal of C(T)*S*C for irrep
                     6
 -1.099120794378905E-014  3.490192667275177E-015
 reorthoganalization of MOs is carried out
 sum over diagonal and offdiagdiagonal of C(T)*S*C for irrep
                     6
 -7.771561172376096E-016  1.649873595490152E-016
 
 sum over diagonal and offdiagdiagonal of C(T)*S*C for irrep
                     7
  7.327471962526033E-015  1.880718394533181E-014
 reorthoganalization of MOs is carried out
 sum over diagonal and offdiagdiagonal of C(T)*S*C for irrep
                     7
  0.000000000000000E+000 -1.289117430317836E-015
 
 sum over diagonal and offdiagdiagonal of C(T)*S*C for irrep
                     8
  8.659739592076221E-015  4.690614454881403E-015
 reorthoganalization of MOs is carried out
 sum over diagonal and offdiagdiagonal of C(T)*S*C for irrep
                     8
  4.440892098500626E-016 -4.029529603108070E-016
  processed                  39896  ao basis integrals from 
                    67  buffers.
  processed                 163190  ao basis integrals from 
                   272  buffers.
  processed                 279765  ao basis integrals from 
                   467  buffers.
       5          -183.382833427116509              0.1778460721D+02
   current occupation vector 
     4  1  1  0  3  1  1  0
     4  1  1  0  3  1  1  0
  processed                  39896  ao basis integrals from 
                    67  buffers.
  processed                 163190  ao basis integrals from 
                   272  buffers.
  processed                 279765  ao basis integrals from 
                   467  buffers.
       6          -187.465778876856120              0.2450650061D+00
   current occupation vector 
     4  1  1  0  3  1  1  0
     4  1  1  0  3  1  1  0
  processed                  39896  ao basis integrals from 
                    67  buffers.
  processed                 163190  ao basis integrals from 
                   272  buffers.
  processed                 279765  ao basis integrals from 
                   467  buffers.
       7          -187.712024706239617              0.5966717883D-01
   current occupation vector 
     4  1  1  0  3  1  1  0
     4  1  1  0  3  1  1  0
  processed                  39896  ao basis integrals from 
                    67  buffers.
  processed                 163190  ao basis integrals from 
                   272  buffers.
  processed                 279765  ao basis integrals from 
                   467  buffers.
       8          -187.715626518617768              0.1260423552D-01
   current occupation vector 
     4  1  1  0  3  1  1  0
     4  1  1  0  3  1  1  0
  processed                  39896  ao basis integrals from 
                    67  buffers.
  processed                 163190  ao basis integrals from 
                   272  buffers.
  processed                 279765  ao basis integrals from 
                   467  buffers.
       9          -187.715867054330687              0.3420429418D-02
   current occupation vector 
     4  1  1  0  3  1  1  0
     4  1  1  0  3  1  1  0
 
 sum over diagonal and offdiagdiagonal of C(T)*S*C for irrep
                     1
  3.441691376337985E-015 -1.926791147753908E-013
 reorthoganalization of MOs is carried out
 sum over diagonal and offdiagdiagonal of C(T)*S*C for irrep
                     1
  7.227551890309769E-014 -6.305684164949813E-014
 
 sum over diagonal and offdiagdiagonal of C(T)*S*C for irrep
                     2
 -1.002531391236516E-013  4.909435841640846E-014
 reorthoganalization of MOs is carried out
 sum over diagonal and offdiagdiagonal of C(T)*S*C for irrep
                     2
 -1.443289932012704E-015 -4.712204503535801E-015
 
 sum over diagonal and offdiagdiagonal of C(T)*S*C for irrep
                     3
  9.847678228425139E-014 -4.876489410885801E-014
 reorthoganalization of MOs is carried out
 sum over diagonal and offdiagdiagonal of C(T)*S*C for irrep
                     3
 -1.221245327087672E-015  1.049190140933698E-015
 
 sum over diagonal and offdiagdiagonal of C(T)*S*C for irrep
                     4
  1.998401444325282E-014 -4.816795927727175E-015
 reorthoganalization of MOs is carried out
 sum over diagonal and offdiagdiagonal of C(T)*S*C for irrep
                     4
  0.000000000000000E+000 -2.002737437944277E-016
 
 sum over diagonal and offdiagdiagonal of C(T)*S*C for irrep
                     5
 -3.325117958752344E-013  3.493152519623732E-013
 reorthoganalization of MOs is carried out
 sum over diagonal and offdiagdiagonal of C(T)*S*C for irrep
                     5
 -1.154631945610163E-014  3.028314887319527E-014
 
 sum over diagonal and offdiagdiagonal of C(T)*S*C for irrep
                     6
 -1.709743457922741E-014  1.246470327280908E-014
 reorthoganalization of MOs is carried out
 sum over diagonal and offdiagdiagonal of C(T)*S*C for irrep
                     6
 -1.221245327087672E-015  7.816257746343044E-016
 
 sum over diagonal and offdiagdiagonal of C(T)*S*C for irrep
                     7
 -3.885780586188048E-015  8.962055947856253E-016
 reorthoganalization of MOs is carried out
 sum over diagonal and offdiagdiagonal of C(T)*S*C for irrep
                     7
 -1.221245327087672E-015  1.300630313424133E-016
 
 sum over diagonal and offdiagdiagonal of C(T)*S*C for irrep
                     8
  1.176836406102666E-014  8.865279644455339E-016
 reorthoganalization of MOs is carried out
 sum over diagonal and offdiagdiagonal of C(T)*S*C for irrep
                     8
 -1.110223024625157E-016 -2.346433943078435E-017
  processed                  39896  ao basis integrals from 
                    67  buffers.
  processed                 163190  ao basis integrals from 
                   272  buffers.
  processed                 279765  ao basis integrals from 
                   467  buffers.
      10          -187.715878730321066              0.1042601846D-02
   current occupation vector 
     4  1  1  0  3  1  1  0
     4  1  1  0  3  1  1  0
  processed                  39896  ao basis integrals from 
                    67  buffers.
  processed                 163190  ao basis integrals from 
                   272  buffers.
  processed                 279765  ao basis integrals from 
                   467  buffers.
      11          -187.715879111229071              0.2927732940D-03
   current occupation vector 
     4  1  1  0  3  1  1  0
     4  1  1  0  3  1  1  0
  processed                  39896  ao basis integrals from 
                    67  buffers.
  processed                 163190  ao basis integrals from 
                   272  buffers.
  processed                 279765  ao basis integrals from 
                   467  buffers.
      12          -187.715879125561088              0.3426502445D-04
   current occupation vector 
     4  1  1  0  3  1  1  0
     4  1  1  0  3  1  1  0
  processed                  39896  ao basis integrals from 
                    67  buffers.
  processed                 163190  ao basis integrals from 
                   272  buffers.
  processed                 279765  ao basis integrals from 
                   467  buffers.
      13          -187.715879126407970              0.1182608870D-04
   current occupation vector 
     4  1  1  0  3  1  1  0
     4  1  1  0  3  1  1  0
  processed                  39896  ao basis integrals from 
                    67  buffers.
  processed                 163190  ao basis integrals from 
                   272  buffers.
  processed                 279765  ao basis integrals from 
                   467  buffers.
      14          -187.715879126415246              0.2098530525D-05
   current occupation vector 
     4  1  1  0  3  1  1  0
     4  1  1  0  3  1  1  0
 
 sum over diagonal and offdiagdiagonal of C(T)*S*C for irrep
                     1
 -1.061373211541650E-013 -3.340040812312048E-013
 reorthoganalization of MOs is carried out
 sum over diagonal and offdiagdiagonal of C(T)*S*C for irrep
                     1
  2.087219286295294E-014  1.883957502552434E-013
 
 sum over diagonal and offdiagdiagonal of C(T)*S*C for irrep
                     2
 -1.046940312221523E-013  4.825118272622864E-014
 reorthoganalization of MOs is carried out
 sum over diagonal and offdiagdiagonal of C(T)*S*C for irrep
                     2
 -1.221245327087672E-015  3.690672158825864E-015
 
 sum over diagonal and offdiagdiagonal of C(T)*S*C for irrep
                     3
  9.914291609902648E-014 -4.214875612919879E-014
 reorthoganalization of MOs is carried out
 sum over diagonal and offdiagdiagonal of C(T)*S*C for irrep
                     3
  2.997602166487923E-015 -8.882674205821330E-015
 
 sum over diagonal and offdiagdiagonal of C(T)*S*C for irrep
                     4
  1.265654248072678E-014 -3.151211154477195E-015
 reorthoganalization of MOs is carried out
 sum over diagonal and offdiagdiagonal of C(T)*S*C for irrep
                     4
 -3.330669073875470E-016  2.465298101518749E-017
 
 sum over diagonal and offdiagdiagonal of C(T)*S*C for irrep
                     5
 -3.685940441755520E-013  3.709335513503602E-013
 reorthoganalization of MOs is carried out
 sum over diagonal and offdiagdiagonal of C(T)*S*C for irrep
                     5
  3.441691376337985E-014 -2.494996886100851E-014
 
 sum over diagonal and offdiagdiagonal of C(T)*S*C for irrep
                     6
 -1.887379141862766E-014  1.280519969895909E-014
 reorthoganalization of MOs is carried out
 sum over diagonal and offdiagdiagonal of C(T)*S*C for irrep
                     6
 -1.776356839400250E-015 -4.870799335962508E-016
 
 sum over diagonal and offdiagdiagonal of C(T)*S*C for irrep
                     7
 -1.576516694967722E-014  1.185116253853054E-015
 reorthoganalization of MOs is carried out
 sum over diagonal and offdiagdiagonal of C(T)*S*C for irrep
                     7
 -5.551115123125783E-016 -6.238977965608078E-016
 
 sum over diagonal and offdiagdiagonal of C(T)*S*C for irrep
                     8
  6.106226635438361E-015  1.735712563912753E-015
 reorthoganalization of MOs is carried out
 sum over diagonal and offdiagdiagonal of C(T)*S*C for irrep
                     8
  0.000000000000000E+000  1.007558996498161E-016
  processed                  39896  ao basis integrals from 
                    67  buffers.
  processed                 163190  ao basis integrals from 
                   272  buffers.
  processed                 279765  ao basis integrals from 
                   467  buffers.
      15          -187.715879126415928              0.1516409897D-06
   current occupation vector 
     4  1  1  0  3  1  1  0
     4  1  1  0  3  1  1  0
  processed                  39896  ao basis integrals from 
                    67  buffers.
  processed                 163190  ao basis integrals from 
                   272  buffers.
  processed                 279765  ao basis integrals from 
                   467  buffers.
      16          -187.715879126415956              0.6076259310D-07
   current occupation vector 
     4  1  1  0  3  1  1  0
     4  1  1  0  3  1  1  0
  processed                  39896  ao basis integrals from 
                    67  buffers.
  processed                 163190  ao basis integrals from 
                   272  buffers.
  processed                 279765  ao basis integrals from 
                   467  buffers.
      17          -187.715879126415871              0.1342759029D-07
   current occupation vector 
     4  1  1  0  3  1  1  0
     4  1  1  0  3  1  1  0
  processed                  39896  ao basis integrals from 
                    67  buffers.
  processed                 163190  ao basis integrals from 
                   272  buffers.
  processed                 279765  ao basis integrals from 
                   467  buffers.
      18          -187.715879126415700              0.2446226333D-08
   current occupation vector 
     4  1  1  0  3  1  1  0
     4  1  1  0  3  1  1  0
  processed                  39896  ao basis integrals from 
                    67  buffers.
  processed                 163190  ao basis integrals from 
                   272  buffers.
  processed                 279765  ao basis integrals from 
                   467  buffers.
      19          -187.715879126415444              0.5727620322D-09
   current occupation vector 
     4  1  1  0  3  1  1  0
     4  1  1  0  3  1  1  0
 
 sum over diagonal and offdiagdiagonal of C(T)*S*C for irrep
                     1
  7.083222897108499E-014 -3.886530546811278E-013
 reorthoganalization of MOs is carried out
 sum over diagonal and offdiagdiagonal of C(T)*S*C for irrep
                     1
 -1.453281939234330E-013 -2.329449764620630E-014
 
 sum over diagonal and offdiagdiagonal of C(T)*S*C for irrep
                     2
 -1.116884362772907E-013  5.265608247014124E-014
 reorthoganalization of MOs is carried out
 sum over diagonal and offdiagdiagonal of C(T)*S*C for irrep
                     2
  9.992007221626409E-016 -5.169677341687372E-015
 
 sum over diagonal and offdiagdiagonal of C(T)*S*C for irrep
                     3
  9.992007221626409E-014 -5.522967266723497E-014
 reorthoganalization of MOs is carried out
 sum over diagonal and offdiagdiagonal of C(T)*S*C for irrep
                     3
  5.551115123125783E-016  1.836198584673869E-015
 
 sum over diagonal and offdiagdiagonal of C(T)*S*C for irrep
                     4
  1.132427485117660E-014 -7.015840674592030E-016
 reorthoganalization of MOs is carried out
 sum over diagonal and offdiagdiagonal of C(T)*S*C for irrep
                     4
 -2.220446049250313E-016 -2.429077655514577E-016
 
 sum over diagonal and offdiagdiagonal of C(T)*S*C for irrep
                     5
 -3.700373341075647E-013  3.730933137454150E-013
 reorthoganalization of MOs is carried out
 sum over diagonal and offdiagdiagonal of C(T)*S*C for irrep
                     5
  1.620925615952729E-014 -4.454617998157330E-016
 
 sum over diagonal and offdiagdiagonal of C(T)*S*C for irrep
                     6
 -1.376676550535194E-014  2.279456747386781E-014
 reorthoganalization of MOs is carried out
 sum over diagonal and offdiagdiagonal of C(T)*S*C for irrep
                     6
 -1.554312234475219E-015 -2.058479156295588E-015
 
 sum over diagonal and offdiagdiagonal of C(T)*S*C for irrep
                     7
 -5.440092820663267E-015  6.199245729743167E-015
 reorthoganalization of MOs is carried out
 sum over diagonal and offdiagdiagonal of C(T)*S*C for irrep
                     7
 -1.554312234475219E-015 -5.127228197416257E-016
 
 sum over diagonal and offdiagdiagonal of C(T)*S*C for irrep
                     8
  3.774758283725532E-015  3.869034088064315E-015
 reorthoganalization of MOs is carried out
 sum over diagonal and offdiagdiagonal of C(T)*S*C for irrep
                     8
  1.110223024625157E-016  3.157764592058680E-016
  processed                  39896  ao basis integrals from 
                    67  buffers.
  processed                 163190  ao basis integrals from 
                   272  buffers.
  processed                 279765  ao basis integrals from 
                   467  buffers.
      20          -187.715879126415956              0.2777020836D-09
   current occupation vector 
     4  1  1  0  3  1  1  0
     4  1  1  0  3  1  1  0
  processed                  39896  ao basis integrals from 
                    67  buffers.
  processed                 163190  ao basis integrals from 
                   272  buffers.
  processed                 279765  ao basis integrals from 
                   467  buffers.
      21          -187.715879126416041              0.4737604753D-10
   current occupation vector 
     4  1  1  0  3  1  1  0
     4  1  1  0  3  1  1  0
  processed                  39896  ao basis integrals from 
                    67  buffers.
  processed                 163190  ao basis integrals from 
                   272  buffers.
  processed                 279765  ao basis integrals from 
                   467  buffers.
      22          -187.715879126415473              0.2008121447D-10
   current occupation vector 
     4  1  1  0  3  1  1  0
     4  1  1  0  3  1  1  0
  processed                  39896  ao basis integrals from 
                    67  buffers.
  processed                 163190  ao basis integrals from 
                   272  buffers.
  processed                 279765  ao basis integrals from 
                   467  buffers.
      23          -187.715879126415786              0.4970288070D-11
   current occupation vector 
     4  1  1  0  3  1  1  0
     4  1  1  0  3  1  1  0
  processed                  39896  ao basis integrals from 
                    67  buffers.
  processed                 163190  ao basis integrals from 
                   272  buffers.
  processed                 279765  ao basis integrals from 
                   467  buffers.
      24          -187.715879126415729              0.3442093832D-11
   current occupation vector 
     4  1  1  0  3  1  1  0
     4  1  1  0  3  1  1  0
 
 sum over diagonal and offdiagdiagonal of C(T)*S*C for irrep
                     1
  2.531308496145357E-014 -5.299030550604769E-013
 reorthoganalization of MOs is carried out
 sum over diagonal and offdiagdiagonal of C(T)*S*C for irrep
                     1
 -4.485301019485632E-014  2.374873943011850E-013
 
 sum over diagonal and offdiagdiagonal of C(T)*S*C for irrep
                     2
 -9.459100169806334E-014  5.014978594460577E-014
 reorthoganalization of MOs is carried out
 sum over diagonal and offdiagdiagonal of C(T)*S*C for irrep
                     2
[...]
[  7   8  28  39]-0.04368 [  4   4  39  39]-0.03695 [  3   3  28  28]-0.03695
[  7   7  30  28]-0.02394 [  7   7  28  30]-0.02394 [  8   8  41  39]-0.02394
[  8   8  39  41]-0.02394 [  4   3  39  28]-0.02351 [  3   4  28  39]-0.02351
[  3   3  29  29]-0.02035 [  4   4  40  40]-0.02035 [  7   6  28  11] 0.02003
-----------------------------------------------------------------------------
   Norm of T2AB vector (    56496 symmetry allowed elements):  0.3486513711.
-----------------------------------------------------------------------------
  W(mnij) AB contribution =  0.0843911657 a.u.
  W(abef) AB contribution =  0.1061127700 a.u.
  W(mbej) AB contribution = -0.2361527760 a.u.
   After  11 iterations, amplitude changes are:
    -------------------------------------------------------------------
                 Spin      RMS          Max.      Max. change for
     Amplitude   Case     Change       Change       i    j    a    b
    -------------------------------------------------------------------
        T1        AA    0.0000000046-0.0000003132    2         9
        T2        AA    0.0000000000 0.0000000558    8    7   39   28
        T2        AB    0.0000000000-0.0000000803    8    7   28   39
    -------------------------------------------------------------------
   The AA contribution to the correlation energy is:   -0.0689922 a.u.
   The AB contribution to the correlation energy is:   -0.4519748 a.u.
   The total correlation energy is -0.589959148982 a.u.
   The total correlation energy is -0.589959148982 a.u.
  Current DIIS expansion coefficients : 
 [   1] 1.1336350032 [   2] 0.0029949615 [   3]-0.0115529915 [   4]-0.0134794675
 [   5]-0.1115975057
  Convergence information after    11 iterations: 
  Largest element of residual vector : -0.31318007E-06.
  Largest element of DIIS residual   :  0.16172781E-06.
  W(mnij) AB contribution =  0.0843912173 a.u.
  W(abef) AB contribution =  0.1061128198 a.u.
  W(mbej) AB contribution = -0.2361529827 a.u.
   After  12 iterations, amplitude changes are:
    -------------------------------------------------------------------
                 Spin      RMS          Max.      Max. change for
     Amplitude   Case     Change       Change       i    j    a    b
    -------------------------------------------------------------------
        T1        AA    0.0000000015-0.0000001390    2         9
        T2        AA    0.0000000000-0.0000000112    7    4   80   28
        T2        AB    0.0000000000-0.0000000669    8    8   39   39
    -------------------------------------------------------------------
   The AA contribution to the correlation energy is:   -0.0689922 a.u.
   The AB contribution to the correlation energy is:   -0.4519749 a.u.
   The total correlation energy is -0.589959209388 a.u.
   The total correlation energy is -0.589959209388 a.u.
  Current DIIS expansion coefficients : 
 [   1]-0.1046914484 [   2] 1.2207614883 [   3]-0.0006061793 [   4] 0.0256486944
 [   5]-0.1411125549
  Convergence information after    12 iterations: 
  Largest element of residual vector : -0.13900629E-06.
  Largest element of DIIS residual   : -0.46689583E-07.
  W(mnij) AB contribution =  0.0843912676 a.u.
  W(abef) AB contribution =  0.1061128671 a.u.
  W(mbej) AB contribution = -0.2361531216 a.u.
   After  13 iterations, amplitude changes are:
    -------------------------------------------------------------------
                 Spin      RMS          Max.      Max. change for
     Amplitude   Case     Change       Change       i    j    a    b
    -------------------------------------------------------------------
        T1        AA    0.0000000006 0.0000000330    4        39
        T2        AA    0.0000000000 0.0000000047    8    7   39   28
        T2        AB    0.0000000000-0.0000000081    8    8   39   39
    -------------------------------------------------------------------
   The AA contribution to the correlation energy is:   -0.0689922 a.u.
   The AB contribution to the correlation energy is:   -0.4519749 a.u.
   The total correlation energy is -0.589959205289 a.u.
   The total correlation energy is -0.589959205289 a.u.
  Current DIIS expansion coefficients : 
 [   1]-0.1134968739 [   2] 0.0987328453 [   3] 1.0174373555 [   4] 0.0047304496
 [   5]-0.0074037765
  Convergence information after    13 iterations: 
  Largest element of residual vector :  0.32951450E-07.
  Largest element of DIIS residual   :  0.13478926E-07.
  W(mnij) AB contribution =  0.0843912740 a.u.
  W(abef) AB contribution =  0.1061128734 a.u.
  W(mbej) AB contribution = -0.2361531428 a.u.
   After  14 iterations, amplitude changes are:
    -------------------------------------------------------------------
                 Spin      RMS          Max.      Max. change for
     Amplitude   Case     Change       Change       i    j    a    b
    -------------------------------------------------------------------
        T1        AA    0.0000000001-0.0000000067    2        11
        T2        AA    0.0000000000-0.0000000011    8    7   39   28
        T2        AB    0.0000000000-0.0000000037    8    8   39   39
    -------------------------------------------------------------------
   The AA contribution to the correlation energy is:   -0.0689922 a.u.
   The AB contribution to the correlation energy is:   -0.4519749 a.u.
   The total correlation energy is -0.589959209702 a.u.
   The total correlation energy is -0.589959209702 a.u.
  Current DIIS expansion coefficients : 
 [   1] 0.0090862639 [   2]-0.0417975177 [   3]-0.1263158724 [   4] 1.1539913144
 [   5] 0.0050358118
  Convergence information after    14 iterations: 
  Largest element of residual vector : -0.66744119E-08.
  Largest element of DIIS residual   : -0.59779696E-08.
  W(mnij) AB contribution =  0.0843912738 a.u.
  W(abef) AB contribution =  0.1061128731 a.u.
  W(mbej) AB contribution = -0.2361531414 a.u.
   After  15 iterations, amplitude changes are:
    -------------------------------------------------------------------
                 Spin      RMS          Max.      Max. change for
     Amplitude   Case     Change       Change       i    j    a    b
    -------------------------------------------------------------------
        T1        AA    0.0000000001-0.0000000030    2         9
        T2        AA    0.0000000000-0.0000000005    4    3   39   28
        T2        AB    0.0000000000 0.0000000012    3    3   28   28
    -------------------------------------------------------------------
   The AA contribution to the correlation energy is:   -0.0689922 a.u.
   The AB contribution to the correlation energy is:   -0.4519749 a.u.
   The total correlation energy is -0.589959209317 a.u.
   The total correlation energy is -0.589959209317 a.u.
  Current DIIS expansion coefficients : 
 [   1] 0.0022633189 [   2] 0.0080321164 [   3]-0.1000348572 [   4]-0.1356236182
 [   5] 1.2253630402
  Convergence information after    15 iterations: 
  Largest element of residual vector : -0.29920208E-08.
  Largest element of DIIS residual   : -0.18108670E-08.
   Largest T1 amplitudes for spin case AA:
   i       a                 i       a                 i       a    
-----------------------------------------------------------------------------
[  3      28    ] 0.04056 [  4      39    ] 0.04056 [  3      29    ] 0.02105
[  4      40    ] 0.02105 [  2      11    ] 0.01059 [  7      72    ]-0.00865
[  8      80    ]-0.00865 [  6      55    ]-0.00822 [  7      74    ]-0.00696
[  8      82    ]-0.00696 [  3      31    ] 0.00678 [  4      42    ] 0.00678
[  4      45    ] 0.00637 [  3      34    ] 0.00637 [  5      58    ]-0.00626
-----------------------------------------------------------------------------
   Norm of T1AA vector (      108 symmetry allowed elements):  0.0724906628.
-----------------------------------------------------------------------------
   Largest T2 amplitudes for spin case AB:
       _       _                 _       _                 _       _
   i   j   a   b             i   j   a   b             i   j   a   b
-----------------------------------------------------------------------------
[  7   7  28  28]-0.05856 [  8   8  39  39]-0.05856 [  8   7  39  28]-0.04368
[  7   8  28  39]-0.04368 [  4   4  39  39]-0.03695 [  3   3  28  28]-0.03695
[  7   7  30  28]-0.02394 [  7   7  28  30]-0.02394 [  8   8  41  39]-0.02394
[  8   8  39  41]-0.02394 [  4   3  39  28]-0.02351 [  3   4  28  39]-0.02351
[  3   3  29  29]-0.02035 [  4   4  40  40]-0.02035 [  8   6  39  11] 0.02003
-----------------------------------------------------------------------------
   Norm of T2AB vector (    56496 symmetry allowed elements):  0.3486516385.
-----------------------------------------------------------------------------
  W(mnij) AB contribution =  0.0843912736 a.u.
  W(abef) AB contribution =  0.1061128728 a.u.
  W(mbej) AB contribution = -0.2361531405 a.u.
   After  16 iterations, amplitude changes are:
    -------------------------------------------------------------------
                 Spin      RMS          Max.      Max. change for
     Amplitude   Case     Change       Change       i    j    a    b
    -------------------------------------------------------------------
        T1        AA    0.0000000000-0.0000000008    2        11
        T2        AA    0.0000000000-0.0000000003    4    3   39   28
        T2        AB    0.0000000000 0.0000000005    4    4   39   39
    -------------------------------------------------------------------
   The AA contribution to the correlation energy is:   -0.0689922 a.u.
   The AB contribution to the correlation energy is:   -0.4519749 a.u.
   The total correlation energy is -0.589959209472 a.u.
   The total correlation energy is -0.589959209472 a.u.
  Current DIIS expansion coefficients : 
 [   1] 1.2103087191 [   2] 0.0017396710 [   3] 0.0048331932 [   4]-0.0310536520
 [   5]-0.1858279313
  Convergence information after    16 iterations: 
  Largest element of residual vector : -0.84524805E-09.
  Largest element of DIIS residual   :  0.45625719E-09.
  Amplitude equations converged in    16iterations.
   The AA contribution to the correlation energy is:   -0.0689922 a.u.
   The AB contribution to the correlation energy is:   -0.4519749 a.u.
   The total correlation energy is -0.589959209473 a.u.
   The total correlation energy is -0.589959209473 a.u.
   The CC iterations have converged.

   Largest T1 amplitudes for spin case AA:
   i       a                 i       a                 i       a    
-----------------------------------------------------------------------------
[  3      28    ] 0.04056 [  4      39    ] 0.04056 [  3      29    ] 0.02105
[  4      40    ] 0.02105 [  2      11    ] 0.01059 [  7      72    ]-0.00865
[  8      80    ]-0.00865 [  6      55    ]-0.00822 [  8      82    ]-0.00696
[  7      74    ]-0.00696 [  3      31    ] 0.00678 [  4      42    ] 0.00678
[  4      45    ] 0.00637 [  3      34    ] 0.00637 [  5      58    ]-0.00626
-----------------------------------------------------------------------------
   Norm of T1AA vector (      108 symmetry allowed elements):  0.0724906634.
-----------------------------------------------------------------------------
   Largest T2 amplitudes for spin case AB:
       _       _                 _       _                 _       _
   i   j   a   b             i   j   a   b             i   j   a   b
-----------------------------------------------------------------------------
[  7   7  28  28]-0.05856 [  8   8  39  39]-0.05856 [  8   7  39  28]-0.04368
[  7   8  28  39]-0.04368 [  4   4  39  39]-0.03695 [  3   3  28  28]-0.03695
[  7   7  30  28]-0.02394 [  7   7  28  30]-0.02394 [  8   8  41  39]-0.02394
[  8   8  39  41]-0.02394 [  4   3  39  28]-0.02351 [  3   4  28  39]-0.02351
[  3   3  29  29]-0.02035 [  4   4  40  40]-0.02035 [  7   6  28  11] 0.02003
-----------------------------------------------------------------------------
   Norm of T2AB vector (    56496 symmetry allowed elements):  0.3486516380.
-----------------------------------------------------------------------------
       Summary of iterative solution of CC equations 
      -----------------------------------------------------------
                       Correlation           Total
       Iteration         Energy              Energy
      -----------------------------------------------------------
            0        -0.598607495283    -188.314486621699  DIIS 
            1        -0.567822826869    -188.283701953285  DIIS 
            2        -0.591721166112    -188.307600292528  DIIS 
            3        -0.587965568194    -188.303844694610  DIIS 
            4        -0.589694739304    -188.305573865719  DIIS 
            5        -0.589956787752    -188.305835914168  DIIS 
            6        -0.589959887654    -188.305839014070  DIIS 
            7        -0.589959210682    -188.305838337098  DIIS 
            8        -0.589959175669    -188.305838302085  DIIS 
            9        -0.589958684595    -188.305837811011  DIIS 
           10        -0.589959202155    -188.305838328571  DIIS 
           11        -0.589959148982    -188.305838275398  DIIS 
           12        -0.589959209388    -188.305838335804  DIIS 
           13        -0.589959205289    -188.305838331705  DIIS 
           14        -0.589959209702    -188.305838336118  DIIS 
           15        -0.589959209317    -188.305838335732  DIIS 
           16        -0.589959209473    -188.305838335889  DIIS 
      -----------------------------------------------------------
      A miracle has come to pass. The CC iterations have converged.
 @DIMT3-I, Dimensions of T3 amplitudes : 
               # abc          # ijk       Symmetry    Spin 
                    11472              6     1          1
                    11056              7     2          1
                    11056              7     3          1
                    10576              8     4          1
                    11552              6     5          1
                    11136              7     6          1
                    11136              7     7          1
                    10576              8     8          1
                    35955             32     1          2
                    34059             28     2          2
                    34059             28     3          2
                    32133             24     4          2
                    35952             32     5          2
                    34056             28     6          2
                    34056             28     7          2
                    32052             24     8          2
                    35955             32     1          3
                    34059             28     2          3
                    34059             28     3          3
                    32133             24     4          3
                    35952             32     5          3
                    34056             28     6          3
                    34056             28     7          3
                    32052             24     8          3
                    11472              6     1          4
                    11056              7     2          4
                    11056              7     3          4
                    10576              8     4          4
                    11552              6     5          4
                    11136              7     6          4
                    11136              7     7          4
                    10576              8     8          4
 @DIMT3-I, Dimensions of T3 amplitudes : 
               # abc          # ijk       Symmetry    Spin 
                    11472              6     1          1
                    11056              7     2          1
                    11056              7     3          1
                    10576              8     4          1
                    11552              6     5          1
                    11136              7     6          1
                    11136              7     7          1
                    10576              8     8          1
                    35955             32     1          2
                    34059             28     2          2
                    34059             28     3          2
                    32133             24     4          2
                    35952             32     5          2
                    34056             28     6          2
                    34056             28     7          2
                    32052             24     8          2
                    35955             32     1          3
                    34059             28     2          3
                    34059             28     3          3
                    32133             24     4          3
                    35952             32     5          3
                    34056             28     6          3
                    34056             28     7          3
                    32052             24     8          3
                    11472              6     1          4
                    11056              7     2          4
                    11056              7     3          4
                    10576              8     4          4
                    11552              6     5          4
                    11136              7     6          4
                    11136              7     7          4
                    10576              8     8          4
 @TRPS-I, Welcome to TRPS. Watch your RUs ! 
 @TRPS-I, Method is CCSD(T) 
 @TRPS-I, Calculation type is energy 
 @TRPS-I, Reference function information : 
          Reference function is Hartree-Fock 
          Reference function is RHF Hartree-Fock 
 @TRPS-I, INT1 is true 
 @TRPS-I, INT2 is false 
 @TRPS-I, Lengths of ijka integrals. #1       2400
                                     #2       2400
                                     #3       5664
                                     #4       5664
                                    Max       5664
 @INITRP-I, Initializing W intermediate lists. 
 @SETOOOV-I, Some OOOV lists are being transposed. 
 @TRPS-I, Available memory in integer words   1499959040
          Number of pre-allocated words for TRPS2        36925
          Number of free words for TRPS2   1499922115
 @TRPS2-I, Spin case AAB 
 @TRPS2-I, Number of free integer words 1499922115
           Number of free double  words 1499922115
           Ratio                                 1
 @TRPS2-I, E4TBAA      -0.014394077773
  @TRPS2-I, E4TAAA  -8.180817510384694E-004
 @TRPS2-I, E5ST A    0.000700524164216
 @TRPS2-I, E5ST B    0.000447395309769
 @SETOOOV-I, Some OOOV lists are being transposed. 
 @CCENRG-I, CCSD/QCISD energy will now be evaluated. 
 @CCENRG-I, Correlation energies. ECCAA       -0.068992153265
                                  ECCBB        0.000000000000
                                  ECCAB       -0.451974902944
                                  Total       -0.589959209473
 @CCENRG-I, Reference   energy    -187.715879126416
            CCSD/QCISD energy     -188.305838335889
          E4T (T(CCSD)) = -0.030424319048
          E5ST          =  0.002295838948
          E4ST          =  0.000000000000
          In other words  
          <T3[2](Dagger) D3  T3[2]> = -0.030424319048
          <T1   (Dagger) Q1 WT3[2]> =  0.002295838948
          <T2   (Dagger) Q2 FT3[2]> =  0.000000000000
        E(CCSD)           =    -188.305838335889
        E(CCSD + T(CCSD)) =    -188.336262654936
        E(CCSD(T))        =    -188.333966815988
  @CHECKOUT-I, Total execution time (CPU/WALL):        2.52/       3.63 seconds.
--executable xvcc finished with status     0 in        3.78 seconds (walltime).
  The final electronic energy is      -188.333966815988276 a.u. 
  This computation required                           18.45 seconds (walltime).
