 --invoking executable--
/project1/nike/cfour_v2.00beta_May2019xnmol_noLABBASIS/bin/xjoda


   *************************************************************************
         <<<     CCCCCC     CCCCCC   |||     CCCCCC     CCCCCC   >>>
       <<<      CCC        CCC       |||    CCC        CCC         >>>
      <<<      CCC        CCC        |||   CCC        CCC            >>>
    <<<        CCC        CCC        |||   CCC        CCC              >>>
      <<<      CCC        CCC        |||   CCC        CCC            >>>
       <<<      CCC        CCC       |||    CCC        CCC         >>>
         <<<     CCCCCC     CCCCCC   |||     CCCCCC     CCCCCC   >>>
   *************************************************************************

     ****************************************************************
     * CFOUR Coupled-Cluster techniques for Computational Chemistry *
     ****************************************************************
 

   Department of Chemistry                Institut fuer Physikalische Chemie
   University of Texas at Austin          Universitaet Mainz
   Austin, TX  78712, USA                 D-55099 Mainz, Germany
 
                       Version 2.00beta
 
                     wob104                                            
                     Mon Feb 10 00:08:18 EST 2020                      
                     integer*8 version is running
 
********************************************************************************
*                          Input from ZMAT file                                *
********************************************************************************
TITLE                                                                           
Ar                                                                              
                                                                                
*ACES2(CALC=CCSD                                                                
#geometry=FromCRC2016_Re_MicroWave                                              
#COORD=CARTESIAN                                                                
#UNITS=BOHR                                                                     
PRINT=4                                                                         
JODA_PRINT=4                                                                    
INPUT_MRCC=OFF                                                                  
CC_PROG=MRCC                                                                    
FROZEN_CORE=ON                                                                  
#DROPMO=1>19                                                                    
CONTRACTION=GENERAL                                                             
#CONTRACTION=SEGMENTED                                                          
RELATIVISTIC=OFF                                                                
#EXCITE=EOMEE                                                                   
#ESTATE_CONV=5                                                                  
#ESTATE_SYM=2/2/2/2/2/2/2/2                                                     
XFORM_TOL=18                                                                    
SAVE_INTS=ON                                                                    
SCF_EXPORDER=6                                                                  
SCF_EXPSTART=5                                                                  
#SCF_DAMPING=1000                                                               
SCF_EXTRAPOLATION=ON                                                            
SCF_CONV=13                                                                     
SCF_MAXCYC=9999                                                                 
CC_CONV=6                                                                       
CC_MAXCYC=999                                                                   
T3_EXTRAPOL=ON                                                                  
REFERENCE=RHF                                                                   
CHARGE=+0                                                                       
MULT=1                                                                          
ABCDTYPE=STANDARD                                                               
#OCCUPATION=3-2-2-0-1-0-0-0/3-1-1-0-1-0-0-0                                     
MEM=15                                                                          
MEM_UNIT=GB                                                                     
BASIS=SPECIAL)                                                                  
                                                                                
KR:def2-TZVPP                                                                   
                                                                                
********************************************************************************
  @GTFLGS-W, Keyword #geometry not known and is ignored.
  @GTFLGS-W, Keyword #COORD not known and is ignored.
  @GTFLGS-W, Keyword #UNITS not known and is ignored.
  @GTFLGS-W, Keyword #DROPMO not known and is ignored.
  @GTFLGS-W, Keyword #CONTRACTION not known and is ignored.
  @GTFLGS-W, Keyword #EXCITE not known and is ignored.
  @GTFLGS-W, Keyword #ESTATE_CONV not known and is ignored.
  @GTFLGS-W, Keyword #ESTATE_SYM not known and is ignored.
  @GTFLGS-W, Keyword #SCF_DAMPING not known and is ignored.
  @GTFLGS-W, Keyword #OCCUPATION not known and is ignored.
    -------------------------------------------------------------------
                    CFOUR Control Parameters 
    -------------------------------------------------------------------
        External           Internal           Value            Units
          Name               Name
    -------------------------------------------------------------------
       ABCDTYPE             IABCDT         STANDARD     [  0]   ***   
       ANHARMONIC           IANHAR         OFF          [  0]   ***   
       ANH_ALGORIT          IANALG         STANDARD     [  0]   ***   
       ANH_DERIVAT          IANDER         SECOND       [  1]   ***   
       ANH_STEPSIZ          ICUBST             50000          x 10-6  
       ANH_SYMMETR          IANHSM         ABELIAN      [  0]   ***   
       AO_LADDERS           IAOLAD         SINGLEPASS   [  1]   ***   
       BASIS                IBASIS         SPECIAL      [  0]   ***   
       BREIT                IBREIT         OFF          [  0]   ***   
       BRUCK_CONV           IBRTOL          10D-  4             ***   
       BRUECKNER            IBRKNR             OFF      [  0]   ***   
       BUFFERSIZE           IBUFFS            600               ***   
       CACHE_RECS           ICHREC             10               ***   
       CALCLEVEL            ICLLVL           CCSD       [ 10]   ***   
       CCORBOPT             ICCORB             OFF      [  0] x 0.01  
       CC_CONV              ICCCNV          10D-  6             ***   
       CC_EXPORDER          ICCEOR              5               ***   
       CC_EXTRAPOL          ICCEXT             DIIS     [  1]   ***   
       CC_MAXCYC            ICCCYC            999              cycles 
       CC_PROGRAM           ICCPRO         MRCC         [  2]   ***   
       CHARGE               ICHRGE              0               ***   
       CHOLESKY             ICHOLE         OFF          [  0]   ***   
       CIS_CONV             ICISTL              5               ***   
       COMM_SIZE            IPSIZE            ***               ***   
       CONSTANT             ICONST         OLD          [  1]   ***   
       CONTINUUM            ICONTU         NONE         [  0]   ***   
       CONTRACTION          ICNTYP          GENERAL     [  1]   ***   
       COORDINATES          ICOORD         INTERNAL     [  0]   ***   
       CPHF_CONVER          ICPHFT          10D- 16             ***   
       CPHF_MAXCYC          ICPHFC             64              cycles 
       CUBIC                ICUBIC         OFF          [  0]   ***   
       CURVILINEAR          ICURVY            OFF       [  0]   ***   
       DBOC                 IDBOC          OFF          [  0]   ***   
       DCT                  IDCT           OFF          [  0]   ***   
       DERIV_LEV            IDRLVL            ZERO      [  0]   ***   
       DIAG_MRCC            IEOMST          10D-  0             ***   
       DIFF_TYPE            IDIFTY         RELAXED      [  0]   ***   
       DIRECT               IDIRCT         OFF          [  0]   ***   
       DROPMO               IDRPMO      NONE         
       ECP                  IECP           OFF          [  0]   ***   
       EIGENVECTOR          IVEC                1               ***   
       EL_ANHARM            IELANH         OFF          [  0]   ***   
       EOMFOLLOW            IEOMSR         ENERGY       [  0]   ***   
       EOM_MRCC             IMRCCE         NEW          [  1]   ***   
       EOM_NONIT            EOMNON         OFF          [  0]   ***   
       EOM_NSING            IEOMSI          10D-  0             ***   
       EOM_NSTATES          IMRCCD         DAVIDSON     [  0]   ***   
       EOM_NTRIP            IEOMTR          10D-  0             ***   
       EOM_ORDER            IEXORD         ENERGY       [  0]   ***   
       ESTATE_CONV          IEXTOL          10D-  5             ***   
       ESTATE_DIAG          IEXDIG         ITERATIVE    [  0]   ***   
       ESTATE_LOCK          IESLOC         ON           [  1]   ***   
       ESTATE_MAXC          IEXMXC             20               ***   
       ESTATE_PROP          IEXPRP         OFF          [  0]   ***   
       EVAL_HESS            IRECAL              0            # of cyc.
       EXCITATION           IEXCIT              0               ***   
       EXCITE               IEXCIT         NONE         [  0]   ***   
       FCGRADNEW            IFCGNW         OFF          [  0]   ***   
       FC_FIELD             IFINFC              0             x 10-6  
       FD_CALTYPE           IFDCAL         GRADONLY     [  0]   ***   
       FD_PROJECT           IFDPRJ         OFF          [  1]   ***   
       FD_STEPSIZE          IDISFD              0            10-4 bohr
       FD_USEGROUP          IFDGRP         FULL         [  0]   ***   
       FILE_RECSIZ          IFLREC              4096           words  
       FINITE_PERT          IFIPER              0             x 10-6  
       FIXGEOM              IFIXGM         OFF          [  0]   ***   
       FOCK                 IFOCK          AO           [  1]   ***   
       FREQ_ALGORI          IVIALG         STANDARD     [  0]   ***   
       FROZEN_CORE          IFROCO         ON           [  1]   ***   
       FROZEN_VIRT          IFROVI         OFF          [  0]   ***   
       GAMMA_ABCD           IGABCD         STORE        [  0]   ***   
       GAMMA_ABCI           IGABCI         STORE        [  0]   ***   
       GENBAS_1             IGNBS1              0               ***   
       GENBAS_2             IGNBS2              0               ***   
       GENBAS_3             IGNBS3              0               ***   
       GENBAS_4             IGNBS4              0               ***   
       GEO_CONV             ICONTL              5              H/bohr 
       GEO_MAXCYC           IOPTCY             50               ***   
       GEO_MAXSTEP          IMXSTP            300            millibohr
       GEO_METHOD           INR            SINGLE_POINT [  5]   ***   
       GIAO                 IGIAO          OFF          [  1]   ***   
       GIMIC                IGIMIC         OFF          [  0]   ***   
       GRID                 IGRID          OFF          [  0]   ***   
       GRID_ALGO            IGALGO         SERIAL       [  0]   ***   
       GUESS                IGUESS            MOREAD    [  0]   ***   
       HBAR                 IHBAR              OFF      [  0]   ***   
       HESS_TYPE            IHESTP         SCF          [  0]   ***   
       HF2_FILE             IHF2Fl         USE          [  1]   ***   
       HFSTABILITY          ISTABL         OFF          [  0]   ***   
       INCORE               INCORE             OFF      [  0]   ***   
       INPUT_MRCC           IMRCC          OFF          [  0]   ***   
       INTEGRALS            INTTYP             VMOL     [  1]   ***   
       JODA_PRINT           IJPRNT              4               ***   
       LINDEP_TOL           ILINDP              8               ***   
       LINEQ_CONV           IZTACN          10D-  7           cycles  
       LINEQ_EXPOR          ILMAXD              5               ***   
       LINEQ_MAXCY          ILMAXC             50               ***   
       LINEQ_TYPE           ILTYPE         DIIS         [  1]   ***   
       LOCK_ORBOCC          ILOCOC             OFF      [  0]   ***   
       MEMORY_SIZE          IMEMSZ         *********           words  
       MEM_UNIT             IMEMU          GB           [  3]   ***   
       MRCC                 IMRCCC         OFF          [  0]   ***   
       MULTIPLICTY          IMULTP              1               ***   
       NEGEVAL              IDIE             ABORT      [  0]   ***   
       NEWNORM              INEWNO         OFF          [  0]   ***   
       NON-HF               INONHF             OFF      [  0]   ***   
       NTOP_TAMP            ITOPT2             15               ***   
       NUC_MODEL            INUCMO         POINT        [  0]   ***   
       OCCUPATION           IOCCU   ESTIMATED BY SCF 
       OPEN-SHELL           IOPEN          SPIN-ORBITAL [  0]   ***   
       ORBITALS             IORBTP           STANDARD   [  0]   ***   
       PARALLEL             IPARAL         ON           [  1]   ***   
       PARA_INT             IPINTS         ON           [  1]   ***   
       PARA_PRINT           IPPRIN              0               ***   
       PERT_ORB             IPTORB         STANDARD     [  0]   ***   
       POINTS               IGRDFD              0               ***   
       PRINT                IPRNT               4               ***   
       PROPS                IPROPS             OFF      [  0]   ***   
       PROP_INTEGR          IINTYP         INTERNAL     [  0]   ***   
       PSI                  IPSI           OFF          [  0]   ***   
       QUARTIC              IQUART         OFF          [  0]   ***   
       RAMAN_INT            IRAMIN         OFF          [  0]   ***   
       RAMAN_ORB            IRAMRE         UNRELAXED    [  0]   ***   
       RDO                  IRDOFM             OFF      [  0]   ***   
       REFERENCE            IREFNC             RHF      [  0]   ***   
       RELATIVIST           IRELAT         OFF          [  0]   ***   
       RELAX_DENS           IRDENS             OFF      [  0]   ***   
       RESET_FLAGS          IRESET             OFF      [  0]   ***   
       RESTART_CC           ICCRES         OFF          [  0]   ***   
       ROT_EVEC             ROTVEC              0               ***   
       SAVE_INTS            ISVINT              ON      [  1]   ***   
       SCALE_ON             ISTCRT              0               ***   
       SCF_CONV             ISCFCV          10D- 13             ***   
       SCF_DAMPING          IDAMP               0             x 10-3  
       SCF_EXPORDE          IRPPOR              6               ***   
       SCF_EXPSTAR          IRPPLS              5               ***   
       SCF_EXTRAPO          IRPP                ON      [  1]   ***   
       SCF_MAXCYC           ISCFCY            ***              cycles 
       SCF_NOSTOP           ISCFST         OFF          [  0]   ***   
       SCF_PRINT            ISCFPR              0               ***   
       SD_FIELD             IFINSD              0             x 10-6  
       SEQUENCE             ISEQUE         OFF          [  0]   ***   
       SOPERT               IPERSO         OFF          [  0]   ***   
       SPHERICAL            IDFGHI             ON       [  1]   ***   
       SPINORBIT            ISOCAL         OFF          [  0]   ***   
       SPINROTATIO          ISRCON         OFF          [  0]   ***   
       SPIN_FLIP            ISPFLP         OFF          [  0]   ***   
       SPIN_ORBIT           ISPORB         OFF          [  0]   ***   
       SPIN_SCAL            ISCSMP         OFF          [  0]   ***   
       SUBGROUP             ISUBGP         DEFAULT      [  0]   ***   
       SUBGRPAXIS           ISBXYZ         X            [  0]   ***   
       SYMMETRY             ISYM             ON         [  0]   ***   
       SYM_CHECK            ISYMCK         OVERRIDE     [  1]   ***   
       T3_EXTRAPOL          IT3EXT         ON           [  1]   ***   
       TAMP_SUM             IEVERY              5               ***   
       TESTSUITE            ITESTS         OFF          [  0]   ***   
       THERMOCH             ITHERM         OFF          [  0]   ***   
       TOL_CHOLESK          ITOLCH          10D-  4             ***   
       TRANGRAD             IRESRM         OFF          [  0]   ***   
       TRANS_INV            ITRAIN         USE          [  0]   ***   
       TREAT_PERT           ITREAT         SIMULTANEOUS [  0]   ***   
       UIJ_THRESHO          IUIJTH              1               ***   
       UNITS                IUNITS         ANGSTROM     [  0]   ***   
       UNOS                 IUNOS          OFF          [  0]   ***   
       UPDATE_HESS          IHUPDT         ON           [  1]   ***   
       VIBPHASE             ISETPH         STANDARD     [  0]   ***   
       VIBRATION            IVIB              NO        [  0]   ***   
       VIB_ALGORIT          IGEALG         STANDARD     [  0]   ***   
       VNATORB              IVNORB         OFF          [  0]   ***   
       VTRAN                IVTRAN         FULL/PARTIAL [  0]   ***   
       XFIELD               IXEFLD              0             x 10-6  
       XFORM_TOL            IXFTOL          10D- 18             ***   
       YFIELD               IYEFLD              0             x 10-6  
       ZFIELD               IZEFLD              0             x 10-6  
    -------------------------------------------------------------------
   1 entries found in Z-matrix 
   Job Title : TITLE                                                                           
  1  AR        18    39.96238
   39.9623837000
 After translation to center of mass coordinates 
        0.000000000000    0.000000000000    0.000000000000
  Inertia tensor (amu*bohr**2)
    0.00000    0.00000    0.00000
    0.00000    0.00000    0.00000
    0.00000    0.00000    0.00000
    Inertia tensor:
        0.000000000000    0.000000000000    0.000000000000
        0.000000000000    0.000000000000    0.000000000000
        0.000000000000    0.000000000000    0.000000000000
    Principal axis orientation for molecular system: 
        0.000000000000    0.000000000000    0.000000000000
    Diagonalized inertia tensor:
        0.000000000000    0.000000000000    0.000000000000
        0.000000000000    0.000000000000    0.000000000000
        0.000000000000    0.000000000000    0.000000000000
    Eigenvectors of inertia tensor: 
        0.000000000000    0.000000000000   -1.000000000000
        0.000000000000    1.000000000000    0.000000000000
        1.000000000000    0.000000000000    0.000000000000
 factor:   60.1997200000000     
   Rotational constants (in cm-1): 

   Rotational constants (in MHz): 

  @SYMMETRY-I, Handedness of inertial frame: 1.00000
  @SYMMETRY-I, The symmetry group is 3-fold degenerate.
  @SYMMETRY-I, The molecule belongs to a cubic point group.
   Principal axis orientation for molecule:
        0.000000000000    0.000000000000    0.000000000000
   Reflection in plane  3 is a valid symmetry operation.
   Rotation about  3 is a valid symmetry operation 
   Reflection in plane  2 is a valid symmetry operation.
   Rotation about  2 is a valid symmetry operation 
   Reflection in plane  1 is a valid symmetry operation.
   Rotation about  1 is a valid symmetry operation 
   The molecule possesses an inversion center. 
  Symmetry bits:    7   7   1
********************************************************************************
   The full molecular point group is I h .
   The largest Abelian subgroup of the full molecular point group is D2h .
   The computational point group is D2h .
********************************************************************************
  @GTFLGS-W, Keyword #geometry not known and is ignored.
  @GTFLGS-W, Keyword #COORD not known and is ignored.
  @GTFLGS-W, Keyword #UNITS not known and is ignored.
  @GTFLGS-W, Keyword #DROPMO not known and is ignored.
  @GTFLGS-W, Keyword #CONTRACTION not known and is ignored.
  @GTFLGS-W, Keyword #EXCITE not known and is ignored.
  @GTFLGS-W, Keyword #ESTATE_CONV not known and is ignored.
  @GTFLGS-W, Keyword #ESTATE_SYM not known and is ignored.
  @GTFLGS-W, Keyword #SCF_DAMPING not known and is ignored.
  @GTFLGS-W, Keyword #OCCUPATION not known and is ignored.
  There are   5 frozen-core orbitals.
  There are   48 basis functions.
 @GEOPT-W, Archive file not created for single-point calculation.
  @CHECKOUT-I, Total execution time (CPU/WALL):        0.30/       0.33 seconds.
--executable xjoda finished with status     0 in        0.34 seconds (walltime).
 --invoking executable--
/project1/nike/cfour_v2.00beta_May2019xnmol_noLABBASIS/bin/xvmol
Running with 20 threads/proc

********************************************************************************
                   INPUT FROM MOL FILE                                          
********************************************************************************
INTGRL        1    0    1    0    0    0    0    0    0
         *** CFOUR Program System (Release V0.1) *** 
TITLE
    1    3 X  Y   Z   0.10E-08              0    0
   9999.00      3.00
         18.00000000    1    4    1    1    1    1
AR#1   0.000000000000000   0.000000000000000   0.000000000000000
   17    6
   600250.975750000       2.374061039900000E-004  0.000000000000000E+000
  0.000000000000000E+000  0.000000000000000E+000  0.000000000000000E+000
  0.000000000000000E+000
   89976.6507810000       1.841024053900000E-003  0.000000000000000E+000
  0.000000000000000E+000  0.000000000000000E+000  0.000000000000000E+000
  0.000000000000000E+000
   20476.8142250000       9.579558069899999E-003  0.000000000000000E+000
  0.000000000000000E+000  0.000000000000000E+000  0.000000000000000E+000
  0.000000000000000E+000
   5796.15540780000       3.902065048800000E-002  0.000000000000000E+000
  0.000000000000000E+000  0.000000000000000E+000  0.000000000000000E+000
  0.000000000000000E+000
   1887.59131960000       0.127726456280000       0.000000000000000E+000
  0.000000000000000E+000  0.000000000000000E+000  0.000000000000000E+000
  0.000000000000000E+000
   679.114585190000       0.305965213000000       0.000000000000000E+000
  0.000000000000000E+000  0.000000000000000E+000  0.000000000000000E+000
  0.000000000000000E+000
   264.382445110000       0.448574744370000       0.000000000000000E+000
  0.000000000000000E+000  0.000000000000000E+000  0.000000000000000E+000
  0.000000000000000E+000
   104.883685740000       0.247229573270000       0.000000000000000E+000
  0.000000000000000E+000  0.000000000000000E+000  0.000000000000000E+000
  0.000000000000000E+000
   641.473707640000       0.000000000000000E+000 -2.674527980500000E-002
  0.000000000000000E+000  0.000000000000000E+000  0.000000000000000E+000
  0.000000000000000E+000
   199.575248200000       0.000000000000000E+000 -0.125711225670000     
  0.000000000000000E+000  0.000000000000000E+000  0.000000000000000E+000
  0.000000000000000E+000
   33.5454629540000       0.000000000000000E+000  0.564837363900000     
  0.000000000000000E+000  0.000000000000000E+000  0.000000000000000E+000
  0.000000000000000E+000
   14.6839551440000       0.000000000000000E+000  0.559727655390000     
  0.000000000000000E+000  0.000000000000000E+000  0.000000000000000E+000
  0.000000000000000E+000
   22.6031018600000       0.000000000000000E+000  0.000000000000000E+000
 -0.252987718000000       0.000000000000000E+000  0.000000000000000E+000
  0.000000000000000E+000
   4.06506829910000       0.000000000000000E+000  0.000000000000000E+000
  0.709921599650000       0.000000000000000E+000  0.000000000000000E+000
  0.000000000000000E+000
   1.96110270600000       0.000000000000000E+000  0.000000000000000E+000
  0.000000000000000E+000   1.00000000000000       0.000000000000000E+000
  0.000000000000000E+000
  0.524651479790000       0.000000000000000E+000  0.000000000000000E+000
  0.000000000000000E+000  0.000000000000000E+000   1.00000000000000     
  0.000000000000000E+000
  0.193323995110000       0.000000000000000E+000  0.000000000000000E+000
  0.000000000000000E+000  0.000000000000000E+000  0.000000000000000E+000
   1.00000000000000     
   13    5
   3232.95896140000       2.488560797400000E-003  0.000000000000000E+000
  0.000000000000000E+000  0.000000000000000E+000  0.000000000000000E+000
   765.964426940000       2.037900742800000E-002  0.000000000000000E+000
  0.000000000000000E+000  0.000000000000000E+000  0.000000000000000E+000
   246.339408100000       9.697718858399999E-002  0.000000000000000E+000
  0.000000000000000E+000  0.000000000000000E+000  0.000000000000000E+000
   92.3652830410000       0.281999609540000       0.000000000000000E+000
  0.000000000000000E+000  0.000000000000000E+000  0.000000000000000E+000
   37.1995095510000       0.451162543580000       0.000000000000000E+000
  0.000000000000000E+000  0.000000000000000E+000  0.000000000000000E+000
   15.1721665340000       0.249171314960000       0.000000000000000E+000
  0.000000000000000E+000  0.000000000000000E+000  0.000000000000000E+000
   60.9313216980000       0.000000000000000E+000 -2.217360351900000E-002
  0.000000000000000E+000  0.000000000000000E+000  0.000000000000000E+000
   9.47926006460000       0.000000000000000E+000  0.328384627780000     
  0.000000000000000E+000  0.000000000000000E+000  0.000000000000000E+000
   4.25646863260000       0.000000000000000E+000  0.581249971200000     
  0.000000000000000E+000  0.000000000000000E+000  0.000000000000000E+000
   1.97293137620000       0.000000000000000E+000  0.328635417830000     
  0.000000000000000E+000  0.000000000000000E+000  0.000000000000000E+000
  0.763371087160000       0.000000000000000E+000  0.000000000000000E+000
   1.00000000000000       0.000000000000000E+000  0.000000000000000E+000
  0.309436255260000       0.000000000000000E+000  0.000000000000000E+000
  0.000000000000000E+000   1.00000000000000       0.000000000000000E+000
  0.115697044580000       0.000000000000000E+000  0.000000000000000E+000
  0.000000000000000E+000  0.000000000000000E+000   1.00000000000000     
    8    4
   186.417609040000       8.612028460100001E-003  0.000000000000000E+000
  0.000000000000000E+000  0.000000000000000E+000
   55.2741243450000       6.039440630400000E-002  0.000000000000000E+000
  0.000000000000000E+000  0.000000000000000E+000
   20.2832191200000       0.211813318690000       0.000000000000000E+000
  0.000000000000000E+000  0.000000000000000E+000
   8.08845369760000       0.403662934130000       0.000000000000000E+000
  0.000000000000000E+000  0.000000000000000E+000
   3.22140338530000       0.424028606860000       0.000000000000000E+000
  0.000000000000000E+000  0.000000000000000E+000
   1.19521701020000       0.000000000000000E+000  0.174417422740000     
  0.000000000000000E+000  0.000000000000000E+000
  0.648000000000000       0.000000000000000E+000  0.000000000000000E+000
   1.00000000000000       0.000000000000000E+000
  0.251000000000000       0.000000000000000E+000  0.000000000000000E+000
  0.000000000000000E+000   1.00000000000000     
    1    1
  0.628000000000000        1.00000000000000     
FINISH
                                                                                
********************************************************************************

ONE- AND TWO-ELECTRON INTEGRALS OVER SYMMETRY-ADAPTED AOS ARE CALCULATED.


    BASIS FUNCTION NOT NORMALIZED:
    CENTER (AS ORDERED IN MOL FILE): ?
    ANGULAR MOMENTUM TYPE:           S
    OFFSET WITHIN ANGULAR MOMENTUM:  1
    <CHI|CHI>:                       1.0625645823

    BASIS FUNCTION NOT NORMALIZED:
    CENTER (AS ORDERED IN MOL FILE): ?
    ANGULAR MOMENTUM TYPE:           S
    OFFSET WITHIN ANGULAR MOMENTUM:  2
    <CHI|CHI>:                       1.0648801991

    BASIS FUNCTION NOT NORMALIZED:
    CENTER (AS ORDERED IN MOL FILE): ?
    ANGULAR MOMENTUM TYPE:           S
    OFFSET WITHIN ANGULAR MOMENTUM:  3
    <CHI|CHI>:                       0.3490530796

    BASIS FUNCTION NOT NORMALIZED:
    CENTER (AS ORDERED IN MOL FILE): ?
    ANGULAR MOMENTUM TYPE:           P
    OFFSET WITHIN ANGULAR MOMENTUM:  1
    <CHI|CHI>:                       0.8761908893

    BASIS FUNCTION NOT NORMALIZED:
    CENTER (AS ORDERED IN MOL FILE): ?
    ANGULAR MOMENTUM TYPE:           P
    OFFSET WITHIN ANGULAR MOMENTUM:  2
    <CHI|CHI>:                       1.2831290977

    BASIS FUNCTION NOT NORMALIZED:
    CENTER (AS ORDERED IN MOL FILE): ?
    ANGULAR MOMENTUM TYPE:           D
    OFFSET WITHIN ANGULAR MOMENTUM:  1
    <CHI|CHI>:                       0.8320297395

    BASIS FUNCTION NOT NORMALIZED:
    CENTER (AS ORDERED IN MOL FILE): ?
    ANGULAR MOMENTUM TYPE:           D
    OFFSET WITHIN ANGULAR MOMENTUM:  2
    <CHI|CHI>:                       0.0304214374
CARTESIAN GAUSSIANS ARE USED.

1 TYPES OF ATOMS
3 SYMMETRY OPERATIONS

REFLECTION IN THE YZ-PLANE
REFLECTION IN THE XZ-PLANE
REFLECTION IN THE XY-PLANE

INTEGRALS LESS THAN 1e-14 ARE NEGLECTED.

ATOMIC TYPE NUMBER 1:
---------------------

    NUCLEAR CHARGE:                       18
    NUMBER OF SYMMETRY INDEPENDENT ATOMS: 1
    HIGHEST ORBITAL TYPE:                 F

    1 GROUPS OF CGTOS OF S TYPE
    1 GROUPS OF CGTOS OF P TYPE
    1 GROUPS OF CGTOS OF D TYPE
    1 GROUPS OF CGTOS OF F TYPE

    NUCLEAR COORDINATES (IN A.U.) ARE:

    AR#1   0.000000000000000   0.000000000000000   0.000000000000000

INTERNUCLEAR DISTANCES (A):

    FOR ATOM AR#1 (COORDINATES:   0.00000   0.00000   0.00000)


GROUP MULTIPLICATION TABLE:

    1 2 3 4 5 6 7 8
    2 1 4 3 6 5 8 7
    3 4 1 2 7 8 5 6
    4 3 2 1 8 7 6 5
    5 6 7 8 1 2 3 4
    6 5 8 7 2 1 4 3
    7 8 5 6 3 4 1 2
    8 7 6 5 4 3 2 1

GAUSSIAN BASIS INFORMATION:

ATOM                EXPONENT       COEFFICIENTS

AR#1  1  S   
                  1  600250.975750   3.5397612   0.0000000   0.0000000   0.0000000   0.0000000   0.0000000
                  2   89976.650781   6.6128589   0.0000000   0.0000000   0.0000000   0.0000000   0.0000000
                  3   20476.814225  11.3376930   0.0000000   0.0000000   0.0000000   0.0000000   0.0000000
                  4    5796.155408  17.9218132   0.0000000   0.0000000   0.0000000   0.0000000   0.0000000
                  5    1887.591320  25.2897343   0.0000000   0.0000000   0.0000000   0.0000000   0.0000000
                  6     679.114585  28.1424413   0.0000000   0.0000000   0.0000000   0.0000000   0.0000000
                  7     264.382445  20.3348842   0.0000000   0.0000000   0.0000000   0.0000000   0.0000000
                  8     104.883686   5.6022669   0.0000000   0.0000000   0.0000000   0.0000000   0.0000000
                  9     641.473708   0.0000000  -2.3544583   0.0000000   0.0000000   0.0000000   0.0000000
                 10     199.575248   0.0000000  -4.6101365   0.0000000   0.0000000   0.0000000   0.0000000
                 11      33.545463   0.0000000   5.4376153   0.0000000   0.0000000   0.0000000   0.0000000
                 12      14.683955   0.0000000   2.8998048   0.0000000   0.0000000   0.0000000   0.0000000
                 13      22.603102   0.0000000   0.0000000  -3.1636602   0.0000000   0.0000000   0.0000000
                 14       4.065068   0.0000000   0.0000000   2.4517469   0.0000000   0.0000000   0.0000000
                 15       1.961103   0.0000000   0.0000000   0.0000000   1.1810964   0.0000000   0.0000000
                 16       0.524651   0.0000000   0.0000000   0.0000000   0.0000000   0.4393527   0.0000000
                 17       0.193324   0.0000000   0.0000000   0.0000000   0.0000000   0.0000000   0.2077899

AR#1  1  X   
                 18    3232.958961  92.3823949   0.0000000   0.0000000   0.0000000   0.0000000
                 19     765.964427 125.0502314   0.0000000   0.0000000   0.0000000   0.0000000
                 20     246.339408 144.1211364   0.0000000   0.0000000   0.0000000   0.0000000
                 21      92.365283 122.9632080   0.0000000   0.0000000   0.0000000   0.0000000
                 22      37.199510  63.1168441   0.0000000   0.0000000   0.0000000   0.0000000
                 23      15.172167  11.3618295   0.0000000   0.0000000   0.0000000   0.0000000
                 24      60.931322   0.0000000  -4.7499817   0.0000000   0.0000000   0.0000000
                 25       9.479260   0.0000000   6.8731493   0.0000000   0.0000000   0.0000000
                 26       4.256469   0.0000000   4.4717720   0.0000000   0.0000000   0.0000000
                 27       1.972931   0.0000000   0.9669617   0.0000000   0.0000000   0.0000000
                 28       0.763371   0.0000000   0.0000000   1.0170908   0.0000000   0.0000000
                 29       0.309436   0.0000000   0.0000000   0.0000000   0.3289683   0.0000000
                 30       0.115697   0.0000000   0.0000000   0.0000000   0.0000000   0.0961818

AR#1  1  Y   
                 31    3232.958961  92.3823949   0.0000000   0.0000000   0.0000000   0.0000000
                 32     765.964427 125.0502314   0.0000000   0.0000000   0.0000000   0.0000000
                 33     246.339408 144.1211364   0.0000000   0.0000000   0.0000000   0.0000000
                 34      92.365283 122.9632080   0.0000000   0.0000000   0.0000000   0.0000000
                 35      37.199510  63.1168441   0.0000000   0.0000000   0.0000000   0.0000000
                 36      15.172167  11.3618295   0.0000000   0.0000000   0.0000000   0.0000000
                 37      60.931322   0.0000000  -4.7499817   0.0000000   0.0000000   0.0000000
                 38       9.479260   0.0000000   6.8731493   0.0000000   0.0000000   0.0000000
                 39       4.256469   0.0000000   4.4717720   0.0000000   0.0000000   0.0000000
                 40       1.972931   0.0000000   0.9669617   0.0000000   0.0000000   0.0000000
                 41       0.763371   0.0000000   0.0000000   1.0170908   0.0000000   0.0000000
                 42       0.309436   0.0000000   0.0000000   0.0000000   0.3289683   0.0000000
                 43       0.115697   0.0000000   0.0000000   0.0000000   0.0000000   0.0961818

AR#1  1  Z   
                 44    3232.958961  92.3823949   0.0000000   0.0000000   0.0000000   0.0000000
                 45     765.964427 125.0502314   0.0000000   0.0000000   0.0000000   0.0000000
                 46     246.339408 144.1211364   0.0000000   0.0000000   0.0000000   0.0000000
                 47      92.365283 122.9632080   0.0000000   0.0000000   0.0000000   0.0000000
                 48      37.199510  63.1168441   0.0000000   0.0000000   0.0000000   0.0000000
                 49      15.172167  11.3618295   0.0000000   0.0000000   0.0000000   0.0000000
                 50      60.931322   0.0000000  -4.7499817   0.0000000   0.0000000   0.0000000
                 51       9.479260   0.0000000   6.8731493   0.0000000   0.0000000   0.0000000
                 52       4.256469   0.0000000   4.4717720   0.0000000   0.0000000   0.0000000
                 53       1.972931   0.0000000   0.9669617   0.0000000   0.0000000   0.0000000
                 54       0.763371   0.0000000   0.0000000   1.0170908   0.0000000   0.0000000
                 55       0.309436   0.0000000   0.0000000   0.0000000   0.3289683   0.0000000
                 56       0.115697   0.0000000   0.0000000   0.0000000   0.0000000   0.0961818

AR#1  1  XX  
                 57     186.417609 253.1385270   0.0000000   0.0000000   0.0000000
                 58      55.274124 211.5001354   0.0000000   0.0000000   0.0000000
                 59      20.283219 128.3345132   0.0000000   0.0000000   0.0000000
                 60       8.088454  48.9422761   0.0000000   0.0000000   0.0000000
                 61       3.221403  10.2653736   0.0000000   0.0000000   0.0000000
                 62       1.195217   0.0000000   3.8949503   0.0000000   0.0000000
                 63       0.648000   0.0000000   0.0000000   1.3342166   0.0000000
                 64       0.251000   0.0000000   0.0000000   0.0000000   0.2537459

AR#1  1  XY  
                 65     186.417609 253.1385270   0.0000000   0.0000000   0.0000000
                 66      55.274124 211.5001354   0.0000000   0.0000000   0.0000000
                 67      20.283219 128.3345132   0.0000000   0.0000000   0.0000000
                 68       8.088454  48.9422761   0.0000000   0.0000000   0.0000000
                 69       3.221403  10.2653736   0.0000000   0.0000000   0.0000000
                 70       1.195217   0.0000000   3.8949503   0.0000000   0.0000000
                 71       0.648000   0.0000000   0.0000000   1.3342166   0.0000000
                 72       0.251000   0.0000000   0.0000000   0.0000000   0.2537459

AR#1  1  XZ  
                 73     186.417609 253.1385270   0.0000000   0.0000000   0.0000000
                 74      55.274124 211.5001354   0.0000000   0.0000000   0.0000000
                 75      20.283219 128.3345132   0.0000000   0.0000000   0.0000000
                 76       8.088454  48.9422761   0.0000000   0.0000000   0.0000000
                 77       3.221403  10.2653736   0.0000000   0.0000000   0.0000000
                 78       1.195217   0.0000000   3.8949503   0.0000000   0.0000000
                 79       0.648000   0.0000000   0.0000000   1.3342166   0.0000000
                 80       0.251000   0.0000000   0.0000000   0.0000000   0.2537459

AR#1  1  YY  
                 81     186.417609 253.1385270   0.0000000   0.0000000   0.0000000
                 82      55.274124 211.5001354   0.0000000   0.0000000   0.0000000
                 83      20.283219 128.3345132   0.0000000   0.0000000   0.0000000
                 84       8.088454  48.9422761   0.0000000   0.0000000   0.0000000
                 85       3.221403  10.2653736   0.0000000   0.0000000   0.0000000
                 86       1.195217   0.0000000   3.8949503   0.0000000   0.0000000
                 87       0.648000   0.0000000   0.0000000   1.3342166   0.0000000
                 88       0.251000   0.0000000   0.0000000   0.0000000   0.2537459

AR#1  1  YZ  
                 89     186.417609 253.1385270   0.0000000   0.0000000   0.0000000
                 90      55.274124 211.5001354   0.0000000   0.0000000   0.0000000
                 91      20.283219 128.3345132   0.0000000   0.0000000   0.0000000
                 92       8.088454  48.9422761   0.0000000   0.0000000   0.0000000
                 93       3.221403  10.2653736   0.0000000   0.0000000   0.0000000
                 94       1.195217   0.0000000   3.8949503   0.0000000   0.0000000
                 95       0.648000   0.0000000   0.0000000   1.3342166   0.0000000
                 96       0.251000   0.0000000   0.0000000   0.0000000   0.2537459

AR#1  1  ZZ  
                 97     186.417609 253.1385270   0.0000000   0.0000000   0.0000000
                 98      55.274124 211.5001354   0.0000000   0.0000000   0.0000000
                 99      20.283219 128.3345132   0.0000000   0.0000000   0.0000000
                100       8.088454  48.9422761   0.0000000   0.0000000   0.0000000
                101       3.221403  10.2653736   0.0000000   0.0000000   0.0000000
                102       1.195217   0.0000000   3.8949503   0.0000000   0.0000000
                103       0.648000   0.0000000   0.0000000   1.3342166   0.0000000
                104       0.251000   0.0000000   0.0000000   0.0000000   0.2537459

AR#1  1  F300
                105       0.628000   2.0017474

AR#1  1  F210
                106       0.628000   2.0017474

AR#1  1  F201
                107       0.628000   2.0017474

AR#1  1  F120
                108       0.628000   2.0017474

AR#1  1  F111
                109       0.628000   2.0017474

AR#1  1  F102
                110       0.628000   2.0017474

AR#1  1  F030
                111       0.628000   2.0017474

AR#1  1  F021
                112       0.628000   2.0017474

AR#1  1  F012
                113       0.628000   2.0017474

AR#1  1  F003
                114       0.628000   2.0017474

SYMMETRY TRANSFORMATION INTO 48 SYMMETRY-ADAPTED BASIS FUNCTIONS

    IRREDUCIBLE REPRESENTATION NUMBER 1

    1    1 AR#1 S      1   1.0
    2    2 AR#1 S      2   1.0
    3    3 AR#1 S      3   1.0
    4    4 AR#1 S      4   1.0
    5    5 AR#1 S      5   1.0
    6    6 AR#1 S      6   1.0
    7    7 AR#1 XX    22  -1.0  34  -1.0  42   2.0
    8    8 AR#1 XX    23  -1.0  35  -1.0  43   2.0
    9    9 AR#1 XX    24  -1.0  36  -1.0  44   2.0
   10   10 AR#1 XX    25  -1.0  37  -1.0  45   2.0
   11   11 AR#1 YY    22   1.0  34  -1.0
   12   12 AR#1 YY    23   1.0  35  -1.0
   13   13 AR#1 YY    24   1.0  36  -1.0
   14   14 AR#1 YY    25   1.0  37  -1.0
   15   15 AR#1 ZZ     7   1.0
   16   16 AR#1 ZZ     8   1.0
   17   17 AR#1 ZZ     9   1.0
   18   18 AR#1 ZZ    10   1.0

    IRREDUCIBLE REPRESENTATION NUMBER 2

   19    1 AR#1 X     11   1.0
   20    2 AR#1 X     46  -1.0  49  -1.0  51   4.0
   21    3 AR#1 X     46   1.0  49  -3.0
   22    4 AR#1 X     12   1.0
   23    5 AR#1 X     13   1.0
   24    6 AR#1 F300  14   1.0
   25    7 AR#1 F120  15   1.0
   26    8 AR#1 F102  16   1.0

    IRREDUCIBLE REPRESENTATION NUMBER 3

   27    1 AR#1 Y     47  -1.0  52  -1.0  54   4.0
   28    2 AR#1 Y     47   3.0  52  -1.0
   29    3 AR#1 Y     26   1.0
   30    4 AR#1 Y     27   1.0
   31    5 AR#1 Y     28   1.0
   32    6 AR#1 F210  29   1.0
   33    7 AR#1 F030  17   1.0
   34    8 AR#1 F012  18   1.0

    IRREDUCIBLE REPRESENTATION NUMBER 4

   35    1 AR#1 XY    19   1.0
   36    2 AR#1 XY    20   1.0
   37    3 AR#1 XY    21   1.0
   38    4 AR#1 XY    48  -3.0  53  -3.0  55   2.0

    IRREDUCIBLE REPRESENTATION NUMBER 5

   39    1 AR#1 Z     48   1.0  53  -1.0
   40    2 AR#1 Z     30   1.0
   41    3 AR#1 Z     31   1.0
   42    4 AR#1 Z     32   1.0
   43    5 AR#1 Z     33   1.0
   44    6 AR#1 F201  38   1.0
   45    7 AR#1 F021  39   1.0
   46    8 AR#1 F003  40   1.0

    IRREDUCIBLE REPRESENTATION NUMBER 6

   47    1 AR#1 XZ    41   1.0
   48    2 AR#1 XZ    50   1.0
   49    3 AR#1 XZ  
   50    4 AR#1 XZ  

    IRREDUCIBLE REPRESENTATION NUMBER 7

   51    1 AR#1 YZ  
   52    2 AR#1 YZ  
   53    3 AR#1 YZ  
   54    4 AR#1 YZ  

    IRREDUCIBLE REPRESENTATION NUMBER 8

   55    1 AR#1 F111

NUCLEAR REPULSION ENERGY:    0.0000000000 A.U.

One-electron integrals took 0.005156 seconds

  @TWOEL-I,       3703 INTEGRALS OF SYMMETRY TYPE  I I I I
  @TWOEL-I,      21900 INTEGRALS OF SYMMETRY TYPE  I J I J
  @TWOEL-I,      14226 INTEGRALS OF SYMMETRY TYPE  I I J J
  @TWOEL-I,      36318 INTEGRALS OF SYMMETRY TYPE  I J K L
  @TWOEL-I, TOTAL NUMBER OF 2-E INTEGRALS      76147

Two-electron integrals took 0.425404 seconds

Nuclear repulsion energy: 0.000000000000
--executable xvmol finished with status     0 in        0.59 seconds (walltime).
 --invoking executable--
/project1/nike/cfour_v2.00beta_May2019xnmol_noLABBASIS/bin/xvmol2ja
--executable xvmol2ja finished with status     0 in        0.01 seconds (walltime).
 --invoking executable--
/project1/nike/cfour_v2.00beta_May2019xnmol_noLABBASIS/bin/xvscf
  There are   48 functions in the AO basis.

  There are 8 irreducible representations.

       Irrep        # of functions
         1                 14
         2                  7
         3                  7
         4                  4
         5                  7
         6                  4
         7                  4
         8                  1


  Parameters for SCF calculation: 
        SCF reference function:  RHF  
  Maximum number of iterations: 9999
     Full symmetry point group: I h 
     Computational point group: D2h 
        Initial density matrix: MOREAD                 
     SCF convergence tolerance: 10**(-13)
  DIIS convergence acceleration:  ON
          Latest start for DIIS:   5
                     DIIS order:   6

  Memory information:     137800 words required.
  Fock matrices are constructed from AO integral file.
 @GETMEM-I,  Allocated       1 MB of main memory.
  Initialization and symmetry analysis required      0.002 seconds.

  @INITGES-I, Occupancies from core Hamiltonian:

          Alpha population by irrep:   3    1    1    1    1    1    1    0
           Beta population by irrep:   3    1    1    1    1    1    1    0


 total no. of electrons in initial guess :  0.000000000000000E+000
  --------------------------------------------------------------------
  Iteration         Total Energy            Largest Density Difference
  --------------------------------------------------------------------
       0             0.000000000000000              0.0000000000D+00
   current occupation vector 
     3  1  1  1  1  1  1  0
     3  1  1  1  1  1  1  0
  processed                   3703  ao basis integrals from 
                     7  buffers.
  processed                  14226  ao basis integrals from 
                    24  buffers.
  processed                  21900  ao basis integrals from 
                    37  buffers.
       1          -381.526380964865552              0.4968550188D+01
   current occupation vector 
     3  1  1  1  1  1  1  0
     3  1  1  1  1  1  1  0
  processed                   3703  ao basis integrals from 
                     7  buffers.
  processed                  14226  ao basis integrals from 
                    24  buffers.
  processed                  21900  ao basis integrals from 
                    37  buffers.
       2          -446.748247274941832              0.5701252345D+01
   current occupation vector 
     3  2  2  0  2  0  0  0
     3  2  2  0  2  0  0  0
  processed                   3703  ao basis integrals from 
                     7  buffers.
  processed                  14226  ao basis integrals from 
                    24  buffers.
  processed                  21900  ao basis integrals from 
                    37  buffers.
       3          -458.760509024031251              0.5618969436D+01
   current occupation vector 
     3  2  2  0  2  0  0  0
     3  2  2  0  2  0  0  0
  processed                   3703  ao basis integrals from 
                     7  buffers.
  processed                  14226  ao basis integrals from 
                    24  buffers.
  processed                  21900  ao basis integrals from 
                    37  buffers.
       4          -460.204508891226510              0.1752511059D+01
   current occupation vector 
     3  2  2  0  2  0  0  0
     3  2  2  0  2  0  0  0
 
 sum over diagonal and offdiagdiagonal of C(T)*S*C for irrep
                     1
  9.992007221626409E-015  2.412567818474380E-014
 reorthoganalization of MOs is carried out
 sum over diagonal and offdiagdiagonal of C(T)*S*C for irrep
                     1
 -6.661338147750939E-016 -1.920049960751547E-015
 
 sum over diagonal and offdiagdiagonal of C(T)*S*C for irrep
                     2
 -3.330669073875470E-014  4.375191968564988E-014
 reorthoganalization of MOs is carried out
 sum over diagonal and offdiagdiagonal of C(T)*S*C for irrep
                     2
 -5.551115123125783E-016 -9.913683202581276E-016
 
 sum over diagonal and offdiagdiagonal of C(T)*S*C for irrep
                     3
 -4.485301019485632E-014  4.356719917444275E-014
 reorthoganalization of MOs is carried out
 sum over diagonal and offdiagdiagonal of C(T)*S*C for irrep
                     3
  6.661338147750939E-016 -1.419190919246366E-015
 
 sum over diagonal and offdiagdiagonal of C(T)*S*C for irrep
                     4
  8.659739592076221E-015 -1.190453985389084E-016
 reorthoganalization of MOs is carried out
 sum over diagonal and offdiagdiagonal of C(T)*S*C for irrep
                     4
  6.661338147750939E-016  6.947567521287112E-016
 
 sum over diagonal and offdiagdiagonal of C(T)*S*C for irrep
                     5
 -4.107825191113079E-015 -3.187439541831142E-015
 reorthoganalization of MOs is carried out
 sum over diagonal and offdiagdiagonal of C(T)*S*C for irrep
                     5
  6.661338147750939E-016  5.186111692460624E-016
 
 sum over diagonal and offdiagdiagonal of C(T)*S*C for irrep
                     6
  9.325873406851315E-015 -1.940721888749053E-015
 reorthoganalization of MOs is carried out
 sum over diagonal and offdiagdiagonal of C(T)*S*C for irrep
                     6
 -4.440892098500626E-016 -1.328798182598234E-015
 
 sum over diagonal and offdiagdiagonal of C(T)*S*C for irrep
                     7
  7.771561172376096E-015  2.617264044380008E-016
 reorthoganalization of MOs is carried out
 sum over diagonal and offdiagdiagonal of C(T)*S*C for irrep
                     7
  1.110223024625157E-016 -1.623050652210800E-015
 
 sum over diagonal and offdiagdiagonal of C(T)*S*C for irrep
                     8
  0.000000000000000E+000  0.000000000000000E+000
 reorthoganalization of MOs is carried out
 sum over diagonal and offdiagdiagonal of C(T)*S*C for irrep
                     8
  0.000000000000000E+000  0.000000000000000E+000
  processed                   3703  ao basis integrals from 
                     7  buffers.
  processed                  14226  ao basis integrals from 
                    24  buffers.
  processed                  21900  ao basis integrals from 
                    37  buffers.
       5          -460.292137722265977              0.2214368755D+00
   current occupation vector 
     3  2  2  0  2  0  0  0
     3  2  2  0  2  0  0  0
  processed                   3703  ao basis integrals from 
                     7  buffers.
  processed                  14226  ao basis integrals from 
                    24  buffers.
  processed                  21900  ao basis integrals from 
                    37  buffers.
       6          -460.296672165058851              0.6655608092D-01
   current occupation vector 
     3  2  2  0  2  0  0  0
     3  2  2  0  2  0  0  0
  processed                   3703  ao basis integrals from 
                     7  buffers.
  processed                  14226  ao basis integrals from 
                    24  buffers.
  processed                  21900  ao basis integrals from 
                    37  buffers.
       7          -460.296685764511153              0.4580071759D-02
   current occupation vector 
     3  2  2  0  2  0  0  0
     3  2  2  0  2  0  0  0
  processed                   3703  ao basis integrals from 
                     7  buffers.
  processed                  14226  ao basis integrals from 
                    24  buffers.
  processed                  21900  ao basis integrals from 
                    37  buffers.
       8          -460.296685863509936              0.7394270444D-03
   current occupation vector 
     3  2  2  0  2  0  0  0
     3  2  2  0  2  0  0  0
  processed                   3703  ao basis integrals from 
                     7  buffers.
  processed                  14226  ao basis integrals from 
                    24  buffers.
  processed                  21900  ao basis integrals from 
                    37  buffers.
       9          -460.296685864240146              0.6300186601D-04
   current occupation vector 
     3  2  2  0  2  0  0  0
     3  2  2  0  2  0  0  0
 
 sum over diagonal and offdiagdiagonal of C(T)*S*C for irrep
                     1
 -4.440892098500626E-016  3.830133066548390E-014
 reorthoganalization of MOs is carried out
 sum over diagonal and offdiagdiagonal of C(T)*S*C for irrep
                     1
  1.332267629550188E-015 -3.516585044317435E-015
 
 sum over diagonal and offdiagdiagonal of C(T)*S*C for irrep
                     2
 -3.552713678800501E-014  4.041736079263349E-014
 reorthoganalization of MOs is carried out
 sum over diagonal and offdiagdiagonal of C(T)*S*C for irrep
                     2
 -7.771561172376096E-016 -5.253069169813625E-016
 
 sum over diagonal and offdiagdiagonal of C(T)*S*C for irrep
                     3
 -2.553512956637860E-014  4.724741241153904E-014
 reorthoganalization of MOs is carried out
 sum over diagonal and offdiagdiagonal of C(T)*S*C for irrep
                     3
  8.881784197001252E-016 -9.997740292286082E-016
 
 sum over diagonal and offdiagdiagonal of C(T)*S*C for irrep
                     4
  1.043609643147647E-014  6.198383820099629E-016
 reorthoganalization of MOs is carried out
 sum over diagonal and offdiagdiagonal of C(T)*S*C for irrep
                     4
 -6.661338147750939E-016  1.363926332986765E-015
 
 sum over diagonal and offdiagdiagonal of C(T)*S*C for irrep
                     5
  3.330669073875470E-016 -5.830406640429804E-015
 reorthoganalization of MOs is carried out
 sum over diagonal and offdiagdiagonal of C(T)*S*C for irrep
                     5
  1.332267629550188E-015 -3.280845241342428E-016
 
 sum over diagonal and offdiagdiagonal of C(T)*S*C for irrep
                     6
  6.661338147750939E-015 -6.554002132674874E-016
 reorthoganalization of MOs is carried out
 sum over diagonal and offdiagdiagonal of C(T)*S*C for irrep
                     6
  0.000000000000000E+000 -1.331617108246697E-015
 
 sum over diagonal and offdiagdiagonal of C(T)*S*C for irrep
                     7
  7.327471962526033E-015  4.484260185400046E-016
 reorthoganalization of MOs is carried out
 sum over diagonal and offdiagdiagonal of C(T)*S*C for irrep
                     7
 -5.551115123125783E-016  4.732542482899227E-016
 
 sum over diagonal and offdiagdiagonal of C(T)*S*C for irrep
                     8
  0.000000000000000E+000  0.000000000000000E+000
 reorthoganalization of MOs is carried out
 sum over diagonal and offdiagdiagonal of C(T)*S*C for irrep
                     8
  0.000000000000000E+000  0.000000000000000E+000
  processed                   3703  ao basis integrals from 
                     7  buffers.
  processed                  14226  ao basis integrals from 
                    24  buffers.
  processed                  21900  ao basis integrals from 
                    37  buffers.
      10          -460.296685864240771              0.1708961274D-05
   current occupation vector 
     3  2  2  0  2  0  0  0
     3  2  2  0  2  0  0  0
  processed                   3703  ao basis integrals from 
                     7  buffers.
  processed                  14226  ao basis integrals from 
                    24  buffers.
  processed                  21900  ao basis integrals from 
                    37  buffers.
      11          -460.296685864242136              0.1637343865D-06
   current occupation vector 
     3  2  2  0  2  0  0  0
     3  2  2  0  2  0  0  0
  processed                   3703  ao basis integrals from 
                     7  buffers.
  processed                  14226  ao basis integrals from 
                    24  buffers.
  processed                  21900  ao basis integrals from 
                    37  buffers.
      12          -460.296685864241340              0.6483602855D-07
   current occupation vector 
     3  2  2  0  2  0  0  0
     3  2  2  0  2  0  0  0
  processed                   3703  ao basis integrals from 
                     7  buffers.
  processed                  14226  ao basis integrals from 
                    24  buffers.
  processed                  21900  ao basis integrals from 
                    37  buffers.
      13          -460.296685864241454              0.3160095408D-08
   current occupation vector 
     3  2  2  0  2  0  0  0
     3  2  2  0  2  0  0  0
  processed                   3703  ao basis integrals from 
                     7  buffers.
  processed                  14226  ao basis integrals from 
                    24  buffers.
  processed                  21900  ao basis integrals from 
                    37  buffers.
      14          -460.296685864241454              0.1206499345D-09
   current occupation vector 
     3  2  2  0  2  0  0  0
     3  2  2  0  2  0  0  0
 
 sum over diagonal and offdiagdiagonal of C(T)*S*C for irrep
                     1
  2.664535259100376E-015  3.217867675600426E-014
 reorthoganalization of MOs is carried out
 sum over diagonal and offdiagdiagonal of C(T)*S*C for irrep
                     1
  8.881784197001252E-016 -4.528389637511973E-015
 
 sum over diagonal and offdiagdiagonal of C(T)*S*C for irrep
                     2
 -4.374278717023117E-014  4.041812839748544E-014
 reorthoganalization of MOs is carried out
 sum over diagonal and offdiagdiagonal of C(T)*S*C for irrep
                     2
 -3.330669073875470E-016 -1.957581232544980E-015
 
 sum over diagonal and offdiagdiagonal of C(T)*S*C for irrep
                     3
 -4.640732242933154E-014  4.170611635437983E-014
 reorthoganalization of MOs is carried out
 sum over diagonal and offdiagdiagonal of C(T)*S*C for irrep
                     3
 -4.440892098500626E-016 -1.216339312386631E-016
 
 sum over diagonal and offdiagdiagonal of C(T)*S*C for irrep
                     4
  1.887379141862766E-015  3.157088306060540E-015
 reorthoganalization of MOs is carried out
 sum over diagonal and offdiagdiagonal of C(T)*S*C for irrep
                     4
 -8.881784197001252E-016 -6.895525817007808E-016
 
 sum over diagonal and offdiagdiagonal of C(T)*S*C for irrep
                     5
 -5.884182030513330E-015 -6.110653823214876E-016
 reorthoganalization of MOs is carried out
 sum over diagonal and offdiagdiagonal of C(T)*S*C for irrep
                     5
  0.000000000000000E+000 -8.834011538966836E-016
 
 sum over diagonal and offdiagdiagonal of C(T)*S*C for irrep
                     6
  3.330669073875470E-015 -1.190345565171835E-015
 reorthoganalization of MOs is carried out
 sum over diagonal and offdiagdiagonal of C(T)*S*C for irrep
                     6
 -3.330669073875470E-016 -6.350172124247599E-016
 
 sum over diagonal and offdiagdiagonal of C(T)*S*C for irrep
                     7
  6.661338147750939E-015 -1.420304845956011E-015
 reorthoganalization of MOs is carried out
 sum over diagonal and offdiagdiagonal of C(T)*S*C for irrep
                     7
 -8.881784197001252E-016  7.675067179024886E-016
 
 sum over diagonal and offdiagdiagonal of C(T)*S*C for irrep
                     8
  0.000000000000000E+000  0.000000000000000E+000
 reorthoganalization of MOs is carried out
 sum over diagonal and offdiagdiagonal of C(T)*S*C for irrep
                     8
  0.000000000000000E+000  0.000000000000000E+000
  processed                   3703  ao basis integrals from 
                     7  buffers.
  processed                  14226  ao basis integrals from 
                    24  buffers.
  processed                  21900  ao basis integrals from 
                    37  buffers.
      15          -460.296685864240715              0.5793532321D-11
   current occupation vector 
     3  2  2  0  2  0  0  0
     3  2  2  0  2  0  0  0
  processed                   3703  ao basis integrals from 
                     7  buffers.
  processed                  14226  ao basis integrals from 
                    24  buffers.
  processed                  21900  ao basis integrals from 
                    37  buffers.
      16          -460.296685864241454              0.9532374889D-12
   current occupation vector 
     3  2  2  0  2  0  0  0
     3  2  2  0  2  0  0  0
  processed                   3703  ao basis integrals from 
                     7  buffers.
  processed                  14226  ao basis integrals from 
                    24  buffers.
  processed                  21900  ao basis integrals from 
                    37  buffers.
      17          -460.296685864241340              0.1461053500D-12
   current occupation vector 
     3  2  2  0  2  0  0  0
     3  2  2  0  2  0  0  0

  SCF has converged.

 Density matrix saved to file den.dat
 total electron number:   18.0000000000000     
  processed                   3703  ao basis integrals from 
                     7  buffers.
  processed                  14226  ao basis integrals from 
                    24  buffers.
  processed                  21900  ao basis integrals from 
                    37  buffers.
     E(SCF)=      -460.296685864241340              0.2420286194D-13


  Final occupancies:

     Alpha population by irrep:   3    2    2    0    2    0    0    0
      Beta population by irrep:   3    2    2    0    2    0    0    0


 @PUTMOS-I, Writing converged MOs to NEWMOS. 
 @PUTMOS-I, Symmetry   1 Full Blocks  3 Partial Blocksize   2
 @PUTMOS-I, Symmetry   2 Full Blocks  1 Partial Blocksize   3
 @PUTMOS-I, Symmetry   3 Full Blocks  1 Partial Blocksize   3
 @PUTMOS-I, Symmetry   4 Full Blocks  1 Partial Blocksize   0
 @PUTMOS-I, Symmetry   5 Full Blocks  1 Partial Blocksize   3
 @PUTMOS-I, Symmetry   6 Full Blocks  1 Partial Blocksize   0
 @PUTMOS-I, Symmetry   7 Full Blocks  1 Partial Blocksize   0
 @PUTMOS-I, Symmetry   8 Full Blocks  0 Partial Blocksize   1
--------------------------------------------------------------------------------
Eigenvalue    -97.328839    -10.615334    -10.055977    -10.055977    -10.055977
 Symmetry          Ag            Ag           T1u           T1u           T1u    
--------------------------------------------------------------------------------
   1 S         0.4371511     0.1157296     0.0000000     0.0000000     0.0000000
   1 S         0.7180770     0.0184925     0.0000000     0.0000000     0.0000000
   1 S        -0.5306732    -1.1029988     0.0000000     0.0000000     0.0000000
   1 S         0.5467054     0.2532150     0.0000000     0.0000000     0.0000000
   1 S        -0.2139215    -0.2763881     0.0000000     0.0000000     0.0000000
   1 S         0.0812370     0.1037082     0.0000000     0.0000000     0.0000000
   1 PX        0.0000000     0.0000000     0.2483141     0.0000000     0.0000000
   1 PY        0.0000000     0.0000000     0.0000000     0.2483141     0.0000000
   1 PZ        0.0000000     0.0000000     0.0000000     0.0000000     0.2483141
   1 PX        0.0000000     0.0000000     0.9508574     0.0000000     0.0000000
   1 PY        0.0000000     0.0000000     0.0000000     0.9508574     0.0000000
   1 PZ        0.0000000     0.0000000     0.0000000     0.0000000     0.9508574
   1 PX        0.0000000     0.0000000    -0.2346251     0.0000000     0.0000000
   1 PY        0.0000000     0.0000000     0.0000000    -0.2346251     0.0000000
   1 PZ        0.0000000     0.0000000     0.0000000     0.0000000    -0.2346251
   1 PX        0.0000000     0.0000000     0.1660968     0.0000000     0.0000000
   1 PY        0.0000000     0.0000000     0.0000000     0.1660968     0.0000000
   1 PZ        0.0000000     0.0000000     0.0000000     0.0000000     0.1660968
   1 PX        0.0000000     0.0000000    -0.0579910     0.0000000     0.0000000
   1 PY        0.0000000     0.0000000     0.0000000    -0.0579910     0.0000000
   1 PZ        0.0000000     0.0000000     0.0000000     0.0000000    -0.0579910
   1 DX2       0.0000000     0.0000000     0.0000000     0.0000000     0.0000000
   1 DXY       0.0000000     0.0000000     0.0000000     0.0000000     0.0000000
   1 DXZ       0.0000000     0.0000000     0.0000000     0.0000000     0.0000000
   1 DY2       0.0000000     0.0000000     0.0000000     0.0000000     0.0000000
   1 DYZ       0.0000000     0.0000000     0.0000000     0.0000000     0.0000000
   1 DZZ       0.0000000     0.0000000     0.0000000     0.0000000     0.0000000
   1 DX2       0.0000000     0.0000000     0.0000000     0.0000000     0.0000000
   1 DXY       0.0000000     0.0000000     0.0000000     0.0000000     0.0000000
   1 DXZ       0.0000000     0.0000000     0.0000000     0.0000000     0.0000000
   1 DY2       0.0000000     0.0000000     0.0000000     0.0000000     0.0000000
   1 DYZ       0.0000000     0.0000000     0.0000000     0.0000000     0.0000000
   1 DZZ       0.0000000     0.0000000     0.0000000     0.0000000     0.0000000
   1 DX2       0.0000000     0.0000000     0.0000000     0.0000000     0.0000000
   1 DXY       0.0000000     0.0000000     0.0000000     0.0000000     0.0000000
   1 DXZ       0.0000000     0.0000000     0.0000000     0.0000000     0.0000000
   1 DY2       0.0000000     0.0000000     0.0000000     0.0000000     0.0000000
   1 DYZ       0.0000000     0.0000000     0.0000000     0.0000000     0.0000000
   1 DZZ       0.0000000     0.0000000     0.0000000     0.0000000     0.0000000
   1 DX2       0.0000000     0.0000000     0.0000000     0.0000000     0.0000000
   1 DXY       0.0000000     0.0000000     0.0000000     0.0000000     0.0000000
   1 DXZ       0.0000000     0.0000000     0.0000000     0.0000000     0.0000000
   1 DY2       0.0000000     0.0000000     0.0000000     0.0000000     0.0000000
   1 DYZ       0.0000000     0.0000000     0.0000000     0.0000000     0.0000000
   1 DZZ       0.0000000     0.0000000     0.0000000     0.0000000     0.0000000
   1 FX3       0.0000000     0.0000000     0.0000000     0.0000000     0.0000000
   1 FX2Y      0.0000000     0.0000000     0.0000000     0.0000000     0.0000000
   1 FX2Z      0.0000000     0.0000000     0.0000000     0.0000000     0.0000000
   1 FXY2      0.0000000     0.0000000     0.0000000     0.0000000     0.0000000
   1 FXYZ      0.0000000     0.0000000     0.0000000     0.0000000     0.0000000
   1 FXZ2      0.0000000     0.0000000     0.0000000     0.0000000     0.0000000
   1 FY3       0.0000000     0.0000000     0.0000000     0.0000000     0.0000000
   1 FY2Z      0.0000000     0.0000000     0.0000000     0.0000000     0.0000000
   1 FYZ2      0.0000000     0.0000000     0.0000000     0.0000000     0.0000000
   1 FZ3       0.0000000     0.0000000     0.0000000     0.0000000     0.0000000
--------------------------------------------------------------------------------
Eigenvalue     -1.134018     -0.608447     -0.608447     -0.608447      0.368291
 Symmetry          Ag           T1u           T1u           T1u           T1u    
--------------------------------------------------------------------------------
   1 S         0.0313629     0.0000000     0.0000000     0.0000000     0.0000000
   1 S        -0.0667544     0.0000000     0.0000000     0.0000000     0.0000000
   1 S        -0.5520861     0.0000000     0.0000000     0.0000000     0.0000000
   1 S         0.0395415     0.0000000     0.0000000     0.0000000     0.0000000
   1 S         0.5812272     0.0000000     0.0000000     0.0000000     0.0000000
   1 S         0.5605407     0.0000000     0.0000000     0.0000000     0.0000000
   1 PX        0.0000000     0.0000000     0.0654210     0.0000000     0.0313055
   1 PY        0.0000000     0.0000000     0.0000000     0.0654210     0.0000000
   1 PZ        0.0000000     0.0654210     0.0000000     0.0000000     0.0000000
   1 PX        0.0000000     0.0000000     0.2687915     0.0000000     0.1200291
   1 PY        0.0000000     0.0000000     0.0000000     0.2687915     0.0000000
   1 PZ        0.0000000     0.2687915     0.0000000     0.0000000     0.0000000
   1 PX        0.0000000     0.0000000    -0.6394483     0.0000000    -0.1626417
   1 PY        0.0000000     0.0000000     0.0000000    -0.6394483     0.0000000
   1 PZ        0.0000000    -0.6394483     0.0000000     0.0000000     0.0000000
   1 PX        0.0000000     0.0000000    -0.3155168     0.0000000    -0.9543674
   1 PY        0.0000000     0.0000000     0.0000000    -0.3155168     0.0000000
   1 PZ        0.0000000    -0.3155168     0.0000000     0.0000000     0.0000000
   1 PX        0.0000000     0.0000000    -0.2590660     0.0000000     1.4434756
   1 PY        0.0000000     0.0000000     0.0000000    -0.2590660     0.0000000
   1 PZ        0.0000000    -0.2590660     0.0000000     0.0000000     0.0000000
   1 DX2       0.0000000     0.0000000     0.0000000     0.0000000     0.0000000
   1 DXY       0.0000000     0.0000000     0.0000000     0.0000000     0.0000000
   1 DXZ       0.0000000     0.0000000     0.0000000     0.0000000     0.0000000
   1 DY2       0.0000000     0.0000000     0.0000000     0.0000000     0.0000000
   1 DYZ       0.0000000     0.0000000     0.0000000     0.0000000     0.0000000
   1 DZZ       0.0000000     0.0000000     0.0000000     0.0000000     0.0000000
   1 DX2       0.0000000     0.0000000     0.0000000     0.0000000     0.0000000
   1 DXY       0.0000000     0.0000000     0.0000000     0.0000000     0.0000000
   1 DXZ       0.0000000     0.0000000     0.0000000     0.0000000     0.0000000
   1 DY2       0.0000000     0.0000000     0.0000000     0.0000000     0.0000000
   1 DYZ       0.0000000     0.0000000     0.0000000     0.0000000     0.0000000
   1 DZZ       0.0000000     0.0000000     0.0000000     0.0000000     0.0000000
   1 DX2       0.0000000     0.0000000     0.0000000     0.0000000     0.0000000
   1 DXY       0.0000000     0.0000000     0.0000000     0.0000000     0.0000000
   1 DXZ       0.0000000     0.0000000     0.0000000     0.0000000     0.0000000
   1 DY2       0.0000000     0.0000000     0.0000000     0.0000000     0.0000000
   1 DYZ       0.0000000     0.0000000     0.0000000     0.0000000     0.0000000
   1 DZZ       0.0000000     0.0000000     0.0000000     0.0000000     0.0000000
   1 DX2       0.0000000     0.0000000     0.0000000     0.0000000     0.0000000
   1 DXY       0.0000000     0.0000000     0.0000000     0.0000000     0.0000000
   1 DXZ       0.0000000     0.0000000     0.0000000     0.0000000     0.0000000
   1 DY2       0.0000000     0.0000000     0.0000000     0.0000000     0.0000000
   1 DYZ       0.0000000     0.0000000     0.0000000     0.0000000     0.0000000
   1 DZZ       0.0000000     0.0000000     0.0000000     0.0000000     0.0000000
   1 FX3       0.0000000     0.0000000     0.0000000     0.0000000     0.0000000
   1 FX2Y      0.0000000     0.0000000     0.0000000     0.0000000     0.0000000
   1 FX2Z      0.0000000     0.0000000     0.0000000     0.0000000     0.0000000
   1 FXY2      0.0000000     0.0000000     0.0000000     0.0000000     0.0000000
   1 FXYZ      0.0000000     0.0000000     0.0000000     0.0000000     0.0000000
   1 FXZ2      0.0000000     0.0000000     0.0000000     0.0000000     0.0000000
   1 FY3       0.0000000     0.0000000     0.0000000     0.0000000     0.0000000
   1 FY2Z      0.0000000     0.0000000     0.0000000     0.0000000     0.0000000
   1 FYZ2      0.0000000     0.0000000     0.0000000     0.0000000     0.0000000
   1 FZ3       0.0000000     0.0000000     0.0000000     0.0000000     0.0000000
--------------------------------------------------------------------------------
Eigenvalue      0.368291      0.368291      0.462765      0.462765      0.462765
 Symmetry         T1u           T1u            Hg            Hg            Hg    
--------------------------------------------------------------------------------
   1 S         0.0000000     0.0000000     0.0000000     0.0000000     0.0000000
   1 S         0.0000000     0.0000000     0.0000000     0.0000000     0.0000000
   1 S         0.0000000     0.0000000     0.0000000     0.0000000     0.0000000
   1 S         0.0000000     0.0000000     0.0000000     0.0000000     0.0000000
   1 S         0.0000000     0.0000000     0.0000000     0.0000000     0.0000000
   1 S         0.0000000     0.0000000     0.0000000     0.0000000     0.0000000
   1 PX        0.0000000     0.0000000     0.0000000     0.0000000     0.0000000
   1 PY        0.0313055     0.0000000     0.0000000     0.0000000     0.0000000
   1 PZ        0.0000000     0.0313055     0.0000000     0.0000000     0.0000000
   1 PX        0.0000000     0.0000000     0.0000000     0.0000000     0.0000000
   1 PY        0.1200291     0.0000000     0.0000000     0.0000000     0.0000000
   1 PZ        0.0000000     0.1200291     0.0000000     0.0000000     0.0000000
   1 PX        0.0000000     0.0000000     0.0000000     0.0000000     0.0000000
   1 PY       -0.1626417     0.0000000     0.0000000     0.0000000     0.0000000
   1 PZ        0.0000000    -0.1626417     0.0000000     0.0000000     0.0000000
   1 PX        0.0000000     0.0000000     0.0000000     0.0000000     0.0000000
   1 PY       -0.9543674     0.0000000     0.0000000     0.0000000     0.0000000
   1 PZ        0.0000000    -0.9543674     0.0000000     0.0000000     0.0000000
   1 PX        0.0000000     0.0000000     0.0000000     0.0000000     0.0000000
   1 PY        1.4434756     0.0000000     0.0000000     0.0000000     0.0000000
   1 PZ        0.0000000     1.4434756     0.0000000     0.0000000     0.0000000
   1 DX2       0.0000000     0.0000000     0.0000000     0.0237878     0.0000000
   1 DXY       0.0000000     0.0000000     0.0000000     0.0000000     0.0477526
   1 DXZ       0.0000000     0.0000000     0.0477526     0.0000000     0.0000000
   1 DY2       0.0000000     0.0000000     0.0000000    -0.0239638     0.0000000
   1 DYZ       0.0000000     0.0000000     0.0000000     0.0000000     0.0000000
   1 DZZ       0.0000000     0.0000000     0.0000000     0.0001760     0.0000000
   1 DX2       0.0000000     0.0000000     0.0000000     0.1569801     0.0000000
   1 DXY       0.0000000     0.0000000     0.0000000     0.0000000     0.3151281
   1 DXZ       0.0000000     0.0000000     0.3151281     0.0000000     0.0000000
   1 DY2       0.0000000     0.0000000     0.0000000    -0.1581416     0.0000000
   1 DYZ       0.0000000     0.0000000     0.0000000     0.0000000     0.0000000
   1 DZZ       0.0000000     0.0000000     0.0000000     0.0011615     0.0000000
   1 DX2       0.0000000     0.0000000     0.0000000    -0.0653472     0.0000000
   1 DXY       0.0000000     0.0000000     0.0000000     0.0000000    -0.1311806
   1 DXZ       0.0000000     0.0000000    -0.1311806     0.0000000     0.0000000
   1 DY2       0.0000000     0.0000000     0.0000000     0.0658307     0.0000000
   1 DYZ       0.0000000     0.0000000     0.0000000     0.0000000     0.0000000
   1 DZZ       0.0000000     0.0000000     0.0000000    -0.0004835     0.0000000
   1 DX2       0.0000000     0.0000000     0.0000000     0.4675217     0.0000000
   1 DXY       0.0000000     0.0000000     0.0000000     0.0000000     0.9385217
   1 DXZ       0.0000000     0.0000000     0.9385217     0.0000000     0.0000000
   1 DY2       0.0000000     0.0000000     0.0000000    -0.4709810     0.0000000
   1 DYZ       0.0000000     0.0000000     0.0000000     0.0000000     0.0000000
   1 DZZ       0.0000000     0.0000000     0.0000000     0.0034593     0.0000000
   1 FX3       0.0000000     0.0000000     0.0000000     0.0000000     0.0000000
   1 FX2Y      0.0000000     0.0000000     0.0000000     0.0000000     0.0000000
   1 FX2Z      0.0000000     0.0000000     0.0000000     0.0000000     0.0000000
   1 FXY2      0.0000000     0.0000000     0.0000000     0.0000000     0.0000000
   1 FXYZ      0.0000000     0.0000000     0.0000000     0.0000000     0.0000000
   1 FXZ2      0.0000000     0.0000000     0.0000000     0.0000000     0.0000000
   1 FY3       0.0000000     0.0000000     0.0000000     0.0000000     0.0000000
   1 FY2Z      0.0000000     0.0000000     0.0000000     0.0000000     0.0000000
   1 FYZ2      0.0000000     0.0000000     0.0000000     0.0000000     0.0000000
   1 FZ3       0.0000000     0.0000000     0.0000000     0.0000000     0.0000000
--------------------------------------------------------------------------------
Eigenvalue      0.462765      0.462765      0.769161      1.388472      1.388472
 Symmetry          Hg            Hg            Ag            Hg            Hg    
--------------------------------------------------------------------------------
   1 S         0.0000000     0.0000000     0.0288104     0.0000000     0.0000000
   1 S         0.0000000     0.0000000    -0.0202109     0.0000000     0.0000000
   1 S         0.0000000     0.0000000    -0.3697128     0.0000000     0.0000000
   1 S         0.0000000     0.0000000    -0.3964460     0.0000000     0.0000000
   1 S         0.0000000     0.0000000     2.3341934     0.0000000     0.0000000
   1 S         0.0000000     0.0000000    -1.9510630     0.0000000     0.0000000
   1 PX        0.0000000     0.0000000     0.0000000     0.0000000     0.0000000
   1 PY        0.0000000     0.0000000     0.0000000     0.0000000     0.0000000
   1 PZ        0.0000000     0.0000000     0.0000000     0.0000000     0.0000000
   1 PX        0.0000000     0.0000000     0.0000000     0.0000000     0.0000000
   1 PY        0.0000000     0.0000000     0.0000000     0.0000000     0.0000000
   1 PZ        0.0000000     0.0000000     0.0000000     0.0000000     0.0000000
   1 PX        0.0000000     0.0000000     0.0000000     0.0000000     0.0000000
   1 PY        0.0000000     0.0000000     0.0000000     0.0000000     0.0000000
   1 PZ        0.0000000     0.0000000     0.0000000     0.0000000     0.0000000
   1 PX        0.0000000     0.0000000     0.0000000     0.0000000     0.0000000
   1 PY        0.0000000     0.0000000     0.0000000     0.0000000     0.0000000
   1 PZ        0.0000000     0.0000000     0.0000000     0.0000000     0.0000000
   1 PX        0.0000000     0.0000000     0.0000000     0.0000000     0.0000000
   1 PY        0.0000000     0.0000000     0.0000000     0.0000000     0.0000000
   1 PZ        0.0000000     0.0000000     0.0000000     0.0000000     0.0000000
   1 DX2       0.0000000    -0.0139371     0.0000000    -0.0341884     0.0584390
   1 DXY       0.0000000     0.0000000     0.0000000     0.0000000     0.0000000
   1 DXZ       0.0000000     0.0000000     0.0000000     0.0000000     0.0000000
   1 DY2       0.0000000    -0.0136323     0.0000000    -0.0335154    -0.0588276
   1 DYZ       0.0477526     0.0000000     0.0000000     0.0000000     0.0000000
   1 DZZ       0.0000000     0.0275694     0.0000000     0.0677039     0.0003886
   1 DX2       0.0000000    -0.0919737     0.0000000    -0.0469960     0.0803311
   1 DXY       0.0000000     0.0000000     0.0000000     0.0000000     0.0000000
   1 DXZ       0.0000000     0.0000000     0.0000000     0.0000000     0.0000000
   1 DY2       0.0000000    -0.0899619     0.0000000    -0.0460708    -0.0808652
   1 DYZ       0.3151281     0.0000000     0.0000000     0.0000000     0.0000000
   1 DZZ       0.0000000     0.1819356     0.0000000     0.0930668     0.0005341
   1 DX2       0.0000000     0.0382866     0.0000000    -0.3227150     0.5516232
   1 DXY       0.0000000     0.0000000     0.0000000     0.0000000     0.0000000
   1 DXZ       0.0000000     0.0000000     0.0000000     0.0000000     0.0000000
   1 DY2       0.0000000     0.0374491     0.0000000    -0.3163622    -0.5552910
   1 DYZ      -0.1311806     0.0000000     0.0000000     0.0000000     0.0000000
   1 DZZ       0.0000000    -0.0757356     0.0000000     0.6390772     0.0036678
   1 DX2       0.0000000    -0.2739182     0.0000000     0.2978831    -0.5091775
   1 DXY       0.0000000     0.0000000     0.0000000     0.0000000     0.0000000
   1 DXZ       0.0000000     0.0000000     0.0000000     0.0000000     0.0000000
   1 DY2       0.0000000    -0.2679265     0.0000000     0.2920191     0.5125631
   1 DYZ       0.9385217     0.0000000     0.0000000     0.0000000     0.0000000
[...]
   -0.018036  2a 3b -> 5a 7b                                            
   -0.024156  2a 3b -> 9a 11b                                           
   -0.018036  3a 2b -> 7a 5b                                            
   -0.024156  3a 2b -> 11a 9b                                           
   -0.023823  2a 3b -> 12a 8b                                           
    0.024162  3a 2b -> 12a 10b                                          
   -0.013629  2a 4a -> 5a 6a                                            
   -0.034187  2a 4a -> 9a 10a                                           
    0.017094  2a 4a -> 11a 12a                                          
    0.012286  2a 4a -> 9a 14a                                           
    0.012286  2a 4a -> 10a 15a                                          
    0.013629  3a 4a -> 6a 7a                                            
   -0.029624  3a 4a -> 8a 11a                                           
    0.017065  3a 4a -> 10a 11a                                          
    0.017094  3a 4a -> 9a 12a                                           
    0.010640  3a 4a -> 11a 17a                                          
   -0.010646  3a 4a -> 8a 18a                                           
   -0.013629  2a 3a -> 5a 7a                                            
   -0.017094  2a 3a -> 9a 11a                                           
    0.029590  2a 3a -> 8a 12a                                           
    0.017123  2a 3a -> 10a 12a                                          
    0.010634  2a 3a -> 8a 16a                                           
   -0.010639  2a 3a -> 12a 17a                                          

 ************************ 2020-02-10 00:09:34 *************************
 Executing goldstone...

 Generation of CC equations in terms of H and T...
 Generation of antisymmetrized Goldstone diagrams...
 Number of diagrams in T^1 equations:    15
 Number of diagrams in T^2 equations:    38
 Number of diagrams in T^3 equations:    54
 Number of diagrams in T^4 equations:    76
 Number of diagrams in T^5 equations:     8
 Translation of diagrams to factorized equations...
 Optimizing intermediate calculation...
 Number of floating-point operations per iteration step:   6.7238E+10
 Probable CPU time per iteration step (hours):      0.67
 Required memory (Mbytes):     291.7
 Number of intermediates:                                 118
 Number of intermediates to be stored:                     52
 Length of intermediate file (Mbytes):      88.9

 ************************ 2020-02-10 00:09:34 *************************
 Executing xmrcc...

 **********************************************************************
 CC(4)(5) calculation 
 
 
 Allocation of 291.7 Mbytes of memory...
 Number of spinorbitals:                    68
 Number of alpha electrons:                        4
 Number of beta electrons:                         4
 Spin multiplicity:                     1
 z-component of spin:  0.0
 Spatial symmetry:                      1
 Convergence criterion:  1.0E-06
 Construction of occupation graphs...
 Number of                     0 -fold excitations:                      1
 Number of                     1 -fold excitations:                     40
 Number of                     2 -fold excitations:                   2576
 Number of                     3 -fold excitations:                  82384
 Number of                     4 -fold excitations:                1346972
 Total number of configurations:                1431973
 Calculation of coupling coefficients...
 Length of intermediate file (Mbytes):      58.1
 
 ======================================================================
 
 Spin case  1   Alpha:  1   Beta:  4
 Number of excitations:                 412174
 Spin case  2   Alpha:  2   Beta:  3
 Number of excitations:                5298300
 Number of                     5 -fold excitations:               11420948
 
 Memory requirements /Mbyte/: 
               Minimal        Optimal
 Real*8:        279.5117       279.5117
 Integer:        15.3874
 Total:         294.8991       294.8991
 

 ************************ 2020-02-10 00:09:41 *************************
 Executing mrcc...

 **********************************************************************
 CCSDTQ(P) calculation                                                  
 
 
 OpenMP parallel version is running.
 Number of CPUs:  20
 Allocation of  279.5 Mbytes of memory...
 Number of spinorbitals:  68
 Number of alpha electrons:  4
 Number of beta  electrons:  4
 Spin multiplicity: 1
 z-component of spin:  0.0
 Spatial symmetry: 1
 Convergence criterion:  1.0E-06
 Construction of occupation graphs...
 Number of 0-fold excitations: 1
 Number of 1-fold excitations: 40
 Number of 2-fold excitations: 2576
 Number of 3-fold excitations: 82384
 Number of 4-fold excitations: 1346972
 Total number of determinants: 1431973
 Calculation of coupling coefficients...
 Initial cluster amplitudes are read from unit 16.
 Length of intermediate file (Mbytes):      58.1
 Reading integral list from unit 55...
 Sorting integrals...
 Energy of reference determinant [au]:   -2752.002727578817
 Calculation of MP denominators...
 
 Starting CC iteration...
 ======================================================================
 Norm of residual vector:     0.03498379
 CPU time [min]:     8.511                   Wall time [min]:     0.433
 
 Iteration  1  CC energy: -2752.19694731  Energy decrease:   5.1250E-10
 ======================================================================
 Norm of residual vector:     0.00660975
 CPU time [min]:    17.691                   Wall time [min]:     0.893
 
 Iteration  2  CC energy: -2752.19689336  Energy decrease:   0.00005395
 ======================================================================
 Norm of residual vector:     0.00176786
 CPU time [min]:    27.110                   Wall time [min]:     1.367
 
 Iteration  3  CC energy: -2752.19706022  Energy decrease:   0.00016686
 ======================================================================
 Norm of residual vector:     0.00048451
 CPU time [min]:    36.605                   Wall time [min]:     1.844
 
 Iteration  4  CC energy: -2752.19710335  Energy decrease:   0.00004313
 ======================================================================
 Norm of residual vector:     0.00008342
 CPU time [min]:    45.914                   Wall time [min]:     2.312
 
 Iteration  5  CC energy: -2752.19710567  Energy decrease:   0.00000232
 ======================================================================
 Norm of residual vector:     0.00002369
 CPU time [min]:    55.623                   Wall time [min]:     2.800
 
 Iteration  6  CC energy: -2752.19710574  Energy decrease:   0.00000008
 ======================================================================
 Norm of residual vector:     0.00000553
 CPU time [min]:    65.283                   Wall time [min]:     3.286
 
 Iteration  7  CC energy: -2752.19710562  Energy decrease:   0.00000012
 ======================================================================
 Norm of residual vector:     0.00000117
 CPU time [min]:    74.941                   Wall time [min]:     3.771
 
 Iteration  8  CC energy: -2752.19710568  Energy decrease:   0.00000006
 ======================================================================
 Norm of residual vector:     0.00000024
 CPU time [min]:    83.838                   Wall time [min]:     4.218
 
 Iteration  9  CC energy: -2752.19710568  Energy decrease:   1.0882E-09
 ======================================================================
 
 Iteration has converged in  9 steps.
 
 Final results:
 Total CCSDTQ energy [au]:         -2752.197105682653
 
 Perturbative corrections are calculated...
 ======================================================================
 Spin case  1   Alpha:  1   Beta:  4
 Number of excitations:        412174
 CPU time [min]:    94.850                   Wall time [min]:     4.789
 ======================================================================
 Spin case  2   Alpha:  2   Beta:  3
 Number of excitations:        5298300
 CPU time [min]:   145.069                   Wall time [min]:     7.493
 ======================================================================
 Number of 5-fold excitations: 11420948
 CPU time [min]:   145.306                   Wall time [min]:     7.505
 
 Total CCSDTQ[P] energy [au]:      -2752.197107605233
 Total CCSDTQ(P) energy [au]:      -2752.197107605233
 
 Dominant cluster amplitudes
 Printing threshold:  1.00E-02
 
    1.000000  Reference determinant                                     
   -0.013655  2b 4b -> 5b 6b                                            
   -0.034224  2b 4b -> 9b 10b                                           
    0.017112  2b 4b -> 11b 12b                                          
    0.012290  2b 4b -> 9b 14b                                           
    0.012290  2b 4b -> 10b 15b                                          
    0.013655  3b 4b -> 6b 7b                                            
   -0.029655  3b 4b -> 8b 11b                                           
    0.017083  3b 4b -> 10b 11b                                          
    0.017112  3b 4b -> 9b 12b                                           
    0.010644  3b 4b -> 11b 17b                                          
   -0.010650  3b 4b -> 8b 18b                                           
   -0.013655  2b 3b -> 5b 7b                                            
   -0.017112  2b 3b -> 9b 11b                                           
    0.029622  2b 3b -> 8b 12b                                           
    0.017141  2b 3b -> 10b 12b                                          
    0.010638  2b 3b -> 8b 16b                                           
   -0.010643  2b 3b -> 12b 17b                                          
   -0.016164  1a 1b -> 13a 13b                                          
   -0.014291  4a 4b -> 8a 8b                                            
    0.018079  4a 4b -> 10a 8b                                           
    0.018079  4a 4b -> 8a 10b                                           
   -0.035072  4a 4b -> 10a 10b                                          
    0.012691  4a 4b -> 14a 10b                                          
   -0.012872  4a 4b -> 13a 13b                                          
    0.012691  4a 4b -> 10a 14b                                          
   -0.010420  4a 4b -> 14a 14b                                          
   -0.014220  2a 2b -> 8a 8b                                            
   -0.018038  2a 2b -> 10a 8b                                           
   -0.018038  2a 2b -> 8a 10b                                           
   -0.035143  2a 2b -> 10a 10b                                          
    0.012705  2a 2b -> 14a 10b                                          
   -0.012872  2a 2b -> 13a 13b                                          
    0.012705  2a 2b -> 10a 14b                                          
   -0.010421  2a 2b -> 14a 14b                                          
   -0.045533  3a 3b -> 8a 8b                                            
   -0.016388  3a 3b -> 17a 8b                                           
   -0.012872  3a 3b -> 13a 13b                                          
   -0.016388  3a 3b -> 8a 17b                                           
   -0.013452  3a 3b -> 17a 17b                                          
   -0.025355  4a 4b -> 6a 6b                                            
   -0.010734  4a 4b -> 27a 6b                                           
   -0.010734  4a 4b -> 6a 27b                                           
   -0.011939  4a 4b -> 27a 27b                                          
   -0.010111  2a 2b -> 21a 21b                                          
   -0.025355  2a 2b -> 5a 5b                                            
   -0.010734  2a 2b -> 26a 5b                                           
   -0.010734  2a 2b -> 5a 26b                                           
   -0.011939  2a 2b -> 26a 26b                                          
   -0.010038  3a 3b -> 25a 25b                                          
   -0.035107  4a 4b -> 9a 9b                                            
   -0.012698  4a 4b -> 15a 9b                                           
   -0.012698  4a 4b -> 9a 15b                                           
   -0.010420  4a 4b -> 15a 15b                                          
   -0.035107  2a 2b -> 9a 9b                                            
   -0.012698  2a 2b -> 15a 9b                                           
   -0.012698  2a 2b -> 9a 15b                                           
   -0.010420  2a 2b -> 15a 15b                                          
   -0.025355  3a 3b -> 7a 7b                                            
   -0.010734  3a 3b -> 28a 7b                                           
   -0.011310  3a 3b -> 22a 22b                                          
   -0.010734  3a 3b -> 7a 28b                                           
   -0.011939  3a 3b -> 28a 28b                                          
   -0.035107  4a 4b -> 11a 11b                                          
   -0.012698  4a 4b -> 18a 11b                                          
   -0.012698  4a 4b -> 11a 18b                                          
   -0.010420  4a 4b -> 18a 18b                                          
   -0.035107  3a 3b -> 11a 11b                                          
   -0.012698  3a 3b -> 18a 11b                                          
   -0.012698  3a 3b -> 11a 18b                                          
   -0.010420  3a 3b -> 18a 18b                                          
   -0.035107  2a 2b -> 12a 12b                                          
   -0.012698  2a 2b -> 16a 12b                                          
   -0.012698  2a 2b -> 12a 16b                                          
   -0.010420  2a 2b -> 16a 16b                                          
   -0.035107  3a 3b -> 12a 12b                                          
   -0.012698  3a 3b -> 16a 12b                                          
   -0.012698  3a 3b -> 12a 16b                                          
   -0.010420  3a 3b -> 16a 16b                                          
   -0.015253  1a 4b -> 13a 6b                                           
   -0.012700  1a 4b -> 13a 27b                                          
   -0.015253  4a 1b -> 6a 13b                                           
   -0.012700  4a 1b -> 27a 13b                                          
    0.010372  4a 1b -> 19a 9b                                           
    0.010372  1a 4b -> 9a 19b                                           
   -0.015253  1a 2b -> 13a 5b                                           
   -0.012700  1a 2b -> 13a 26b                                          
    0.010516  2a 1b -> 21a 9b                                           
   -0.015253  2a 1b -> 5a 13b                                           
   -0.012700  2a 1b -> 26a 13b                                          
    0.010516  1a 2b -> 9a 21b                                           
    0.018075  4a 2b -> 8a 9b                                            
   -0.017094  4a 2b -> 10a 9b                                           
    0.018042  2a 4b -> 8a 9b                                            
    0.017130  2a 4b -> 10a 9b                                           
   -0.018067  4a 2b -> 6a 5b                                            
   -0.018067  2a 4b -> 5a 6b                                            
    0.018042  4a 2b -> 9a 8b                                            
    0.017130  4a 2b -> 9a 10b                                           
    0.018075  2a 4b -> 9a 8b                                            
   -0.017094  2a 4b -> 9a 10b                                           
   -0.024195  4a 2b -> 11a 12b                                          
   -0.024195  2a 4b -> 12a 11b                                          
   -0.015253  1a 3b -> 13a 7b                                           
   -0.011152  1a 3b -> 8a 22b                                           
   -0.012700  1a 3b -> 13a 28b                                          
   -0.010169  3a 1b -> 24a 11b                                          
   -0.010476  3a 1b -> 25a 12b                                          
   -0.011152  3a 1b -> 22a 8b                                           
   -0.015253  3a 1b -> 7a 13b                                           
   -0.012700  3a 1b -> 28a 13b                                          
   -0.010169  1a 3b -> 11a 24b                                          
   -0.010476  1a 3b -> 12a 25b                                          
   -0.024189  4a 3b -> 10a 11b                                          
   -0.023842  3a 4b -> 8a 11b                                           
   -0.018067  4a 3b -> 6a 7b                                            
   -0.024195  4a 3b -> 9a 12b                                           
   -0.018067  3a 4b -> 7a 6b                                            
   -0.023842  4a 3b -> 11a 8b                                           
   -0.024189  3a 4b -> 11a 10b                                          
   -0.024195  3a 4b -> 12a 9b                                           
    0.024201  2a 3b -> 10a 12b                                          
   -0.023856  3a 2b -> 8a 12b                                           
   -0.018067  2a 3b -> 5a 7b                                            
   -0.024195  2a 3b -> 9a 11b                                           
   -0.018067  3a 2b -> 7a 5b                                            
   -0.024195  3a 2b -> 11a 9b                                           
   -0.023856  2a 3b -> 12a 8b                                           
    0.024201  3a 2b -> 12a 10b                                          
   -0.013655  2a 4a -> 5a 6a                                            
   -0.034224  2a 4a -> 9a 10a                                           
    0.017112  2a 4a -> 11a 12a                                          
    0.012290  2a 4a -> 9a 14a                                           
    0.012290  2a 4a -> 10a 15a                                          
    0.013655  3a 4a -> 6a 7a                                            
   -0.029655  3a 4a -> 8a 11a                                           
    0.017083  3a 4a -> 10a 11a                                          
    0.017112  3a 4a -> 9a 12a                                           
    0.010644  3a 4a -> 11a 17a                                          
   -0.010650  3a 4a -> 8a 18a                                           
   -0.013655  2a 3a -> 5a 7a                                            
   -0.017112  2a 3a -> 9a 11a                                           
    0.029622  2a 3a -> 8a 12a                                           
    0.017141  2a 3a -> 10a 12a                                          
    0.010638  2a 3a -> 8a 16a                                           
   -0.010643  2a 3a -> 12a 17a                                          
 
 ************************ 2020-02-10 00:17:12 *************************
                      Normal termination of mrcc.
 **********************************************************************
--executable dmrcc finished with status     0 in      490.44 seconds (walltime).
  The final electronic energy is     -2752.197107605233214 a.u. 
  This computation required                          491.83 seconds (walltime).
--- SharcNET Job Epilogue ---
Job completed successfully.
               jobid: 1927066
               resid: 3398576
         exit status: 0
      allocated time: 492.86
           user time: 9035.73
         system time: 170.01
peak rss=710107136; peak vsz=710107136 (bytes)
atime=492.86; utime=9035.73; stime=170.01; exit=0
