 --invoking executable--
/home/nike/cfour/cfour_v2.00beta/bin/xjoda


   *************************************************************************
         <<<     CCCCCC     CCCCCC   |||     CCCCCC     CCCCCC   >>>
       <<<      CCC        CCC       |||    CCC        CCC         >>>
      <<<      CCC        CCC        |||   CCC        CCC            >>>
    <<<        CCC        CCC        |||   CCC        CCC              >>>
      <<<      CCC        CCC        |||   CCC        CCC            >>>
       <<<      CCC        CCC       |||    CCC        CCC         >>>
         <<<     CCCCCC     CCCCCC   |||     CCCCCC     CCCCCC   >>>
   *************************************************************************

     ****************************************************************
     * CFOUR Coupled-Cluster techniques for Computational Chemistry *
     ****************************************************************
 

   Department of Chemistry                Institut fuer Physikalische Chemie
   University of Texas at Austin          Universitaet Mainz
   Austin, TX  78712, USA                 D-55099 Mainz, Germany
 
                       Version 2.00beta
 
                     gra643                                            
                     Tue Jul 27 13:19:48 EDT 2021                      
                     integer*8 version is running
 
********************************************************************************
*                          Input from ZMAT file                                *
********************************************************************************
TITLE                                                                           
C  1.2247  0.0000 0.0000                                                        
C -1.2247  0.0000 0.0000                                                        
C  0.0000 -0.7286 0.0000                                                        
C  0.0000  0.7286 0.0000                                                        
                                                                                
*ACES2(CALC=CCSD(T)                                                             
#UNITS=BOHR                                                                     
UNITS=ANGSTROM                                                                  
#GEOM=2.2810272*10/5.29177210903_in2013JMSLeRoy                                 
COORD=CARTESIAN                                                                 
#COORD=INTERNAL                                                                 
PRINT=4                                                                         
JODA_PRINT=4                                                                    
INPUT_MRCC=OFF                                                                  
#CC_PROG=MRCC                                                                   
FROZEN_CORE=ON                                                                  
#DROPMO=1>4                                                                     
CONTRACTION=GENERAL                                                             
#CONTRACTION=SEGMENTED                                                          
RELATIVISTIC=OFF                                                                
#EXCITE=EOMEE                                                                   
#ESTATE_CONV=5                                                                  
#ESTATE_SYM=2/2/2/2/2/2/2/2                                                     
XFORM_TOL=18                                                                    
SAVE_INTS=ON                                                                    
SCF_EXPORDER=6                                                                  
SCF_EXPSTART=5                                                                  
#SCF_DAMPING=1000                                                               
SCF_EXTRAPOLATION=ON                                                            
SCF_CONV=11                                                                     
SCF_MAXCYC=9999                                                                 
CC_CONV=9                                                                       
CC_MAXCYC=999                                                                   
T3_EXTRAPOL=ON                                                                  
REFERENCE=ROHF                                                                  
CHARGE=+1                                                                       
MULT=2                                                                          
ABCDTYPE=STANDARD                                                               
#OCCUPATION=3-2-2-0-1-0-0-0/3-1-1-0-1-0-0-0                                     
MEM=4                                                                           
MEM_UNIT=GB                                                                     
BASIS=SPECIAL)                                                                  
                                                                                
C:6-31G-EMSL                                                                    
C:6-31G-EMSL                                                                    
C:6-31G-EMSL                                                                    
C:6-31G-EMSL                                                                    
                                                                                
********************************************************************************
  @GTFLGS-W, Keyword #UNITS not known and is ignored.
  @GTFLGS-W, Keyword #GEOM not known and is ignored.
  @GTFLGS-W, Keyword #COORD not known and is ignored.
  @GTFLGS-W, Keyword #CC_PROG not known and is ignored.
  @GTFLGS-W, Keyword #DROPMO not known and is ignored.
  @GTFLGS-W, Keyword #CONTRACTION not known and is ignored.
  @GTFLGS-W, Keyword #EXCITE not known and is ignored.
  @GTFLGS-W, Keyword #ESTATE_CONV not known and is ignored.
  @GTFLGS-W, Keyword #ESTATE_SYM not known and is ignored.
  @GTFLGS-W, Keyword #SCF_DAMPING not known and is ignored.
  @GTFLGS-W, Keyword #OCCUPATION not known and is ignored.
    -------------------------------------------------------------------
                    CFOUR Control Parameters 
    -------------------------------------------------------------------
        External           Internal           Value            Units
          Name               Name
    -------------------------------------------------------------------
       ABCDTYPE             IABCDT         STANDARD     [  0]   ***   
       ANHARMONIC           IANHAR         OFF          [  0]   ***   
       ANH_ALGORIT          IANALG         STANDARD     [  0]   ***   
       ANH_DERIVAT          IANDER         SECOND       [  1]   ***   
       ANH_STEPSIZ          ICUBST             50000          x 10-6  
       ANH_SYMMETR          IANHSM         ABELIAN      [  0]   ***   
       AO_LADDERS           IAOLAD         SINGLEPASS   [  1]   ***   
       BASIS                IBASIS         SPECIAL      [  0]   ***   
       BREIT                IBREIT         OFF          [  0]   ***   
       BRUCK_CONV           IBRTOL          10D-  4             ***   
       BRUECKNER            IBRKNR             OFF      [  0]   ***   
       BUFFERSIZE           IBUFFS            600               ***   
       CACHE_RECS           ICHREC             10               ***   
       CALCLEVEL            ICLLVL           CCSD(T)    [ 22]   ***   
       CCORBOPT             ICCORB             OFF      [  0] x 0.01  
       CC_CONV              ICCCNV          10D-  9             ***   
       CC_EXPORDER          ICCEOR              5               ***   
       CC_EXTRAPOL          ICCEXT             DIIS     [  1]   ***   
       CC_MAXCYC            ICCCYC            999              cycles 
       CC_PROGRAM           ICCPRO         VCC          [  0]   ***   
       CHARGE               ICHRGE              1               ***   
       CHOLESKY             ICHOLE         OFF          [  0]   ***   
       CIS_CONV             ICISTL              5               ***   
       COMM_SIZE            IPSIZE            ***               ***   
       CONSTANT             ICONST         OLD          [  1]   ***   
       CONTINUUM            ICONTU         NONE         [  0]   ***   
       CONTRACTION          ICNTYP          GENERAL     [  1]   ***   
       COORDINATES          ICOORD         CARTESIAN    [  1]   ***   
       CPHF_CONVER          ICPHFT          10D- 16             ***   
       CPHF_MAXCYC          ICPHFC             64              cycles 
       CUBIC                ICUBIC         OFF          [  0]   ***   
       CURVILINEAR          ICURVY            OFF       [  0]   ***   
       DBOC                 IDBOC          OFF          [  0]   ***   
       DCT                  IDCT           OFF          [  0]   ***   
       DERIV_LEV            IDRLVL            ZERO      [  0]   ***   
       DIAG_MRCC            IEOMST          10D-  0             ***   
       DIFF_TYPE            IDIFTY         RELAXED      [  0]   ***   
       DIRECT               IDIRCT         OFF          [  0]   ***   
       DROPMO               IDRPMO      NONE         
       ECP                  IECP           OFF          [  0]   ***   
       EIGENVECTOR          IVEC                1               ***   
       EL_ANHARM            IELANH         OFF          [  0]   ***   
       EOMFOLLOW            IEOMSR         ENERGY       [  0]   ***   
       EOM_MRCC             IMRCCE         NEW          [  1]   ***   
       EOM_NONIT            EOMNON         OFF          [  0]   ***   
       EOM_NSING            IEOMSI          10D-  0             ***   
       EOM_NSTATES          IMRCCD         DAVIDSON     [  0]   ***   
       EOM_NTRIP            IEOMTR          10D-  0             ***   
       EOM_ORDER            IEXORD         ENERGY       [  0]   ***   
       ESTATE_CONV          IEXTOL          10D-  5             ***   
       ESTATE_DIAG          IEXDIG         ITERATIVE    [  0]   ***   
       ESTATE_LOCK          IESLOC         ON           [  1]   ***   
       ESTATE_MAXC          IEXMXC             20               ***   
       ESTATE_PROP          IEXPRP         OFF          [  0]   ***   
       EVAL_HESS            IRECAL              0            # of cyc.
       EXCITATION           IEXCIT              0               ***   
       EXCITE               IEXCIT         NONE         [  0]   ***   
       FCGRADNEW            IFCGNW         OFF          [  0]   ***   
       FC_FIELD             IFINFC              0             x 10-6  
       FD_CALTYPE           IFDCAL         GRADONLY     [  0]   ***   
       FD_PROJECT           IFDPRJ         OFF          [  1]   ***   
       FD_STEPSIZE          IDISFD              0            10-4 bohr
       FD_USEGROUP          IFDGRP         FULL         [  0]   ***   
       FILE_RECSIZ          IFLREC              4096           words  
       FINITE_PERT          IFIPER              0             x 10-6  
       FIXGEOM              IFIXGM         OFF          [  0]   ***   
       FOCK                 IFOCK          AO           [  1]   ***   
       FREQ_ALGORI          IVIALG         STANDARD     [  0]   ***   
       FROZEN_CORE          IFROCO         ON           [  1]   ***   
       FROZEN_VIRT          IFROVI         OFF          [  0]   ***   
       GAMMA_ABCD           IGABCD         STORE        [  0]   ***   
       GAMMA_ABCI           IGABCI         STORE        [  0]   ***   
       GENBAS_1             IGNBS1              0               ***   
       GENBAS_2             IGNBS2              0               ***   
       GENBAS_3             IGNBS3              0               ***   
       GENBAS_4             IGNBS4              0               ***   
       GEO_CONV             ICONTL              5              H/bohr 
       GEO_MAXCYC           IOPTCY             50               ***   
       GEO_MAXSTEP          IMXSTP            300            millibohr
       GEO_METHOD           INR            SINGLE_POINT [  5]   ***   
       GIAO                 IGIAO          OFF          [  1]   ***   
       GIMIC                IGIMIC         OFF          [  0]   ***   
       GRID                 IGRID          OFF          [  0]   ***   
       GRID_ALGO            IGALGO         SERIAL       [  0]   ***   
       GUESS                IGUESS            MOREAD    [  0]   ***   
       HBAR                 IHBAR              OFF      [  0]   ***   
       HESS_TYPE            IHESTP         SCF          [  0]   ***   
       HF2_FILE             IHF2Fl         USE          [  1]   ***   
       HFSTABILITY          ISTABL         OFF          [  0]   ***   
       INCORE               INCORE             OFF      [  0]   ***   
       INPUT_MRCC           IMRCC          OFF          [  0]   ***   
       INTEGRALS            INTTYP             VMOL     [  1]   ***   
       JODA_PRINT           IJPRNT              4               ***   
       LINDEP_TOL           ILINDP              8               ***   
       LINEQ_CONV           IZTACN          10D-  7           cycles  
       LINEQ_EXPOR          ILMAXD              5               ***   
       LINEQ_MAXCY          ILMAXC             50               ***   
       LINEQ_TYPE           ILTYPE         DIIS         [  1]   ***   
       LOCK_ORBOCC          ILOCOC             OFF      [  0]   ***   
       MEMORY_SIZE          IMEMSZ         500000000           words  
       MEM_UNIT             IMEMU          GB           [  3]   ***   
       MRCC                 IMRCCC         OFF          [  0]   ***   
       MULTIPLICTY          IMULTP              2               ***   
       NEGEVAL              IDIE             ABORT      [  0]   ***   
       NEWNORM              INEWNO         OFF          [  0]   ***   
       NON-HF               INONHF              ON      [  1]   ***   
       NTOP_TAMP            ITOPT2             15               ***   
       NUC_MODEL            INUCMO         POINT        [  0]   ***   
       OCCUPATION           IOCCU   ESTIMATED BY SCF 
       OPEN-SHELL           IOPEN          SPIN-ORBITAL [  0]   ***   
       ORBITALS             IORBTP         SEMICANONICAL[  1]   ***   
       PARALLEL             IPARAL         ON           [  1]   ***   
       PARA_INT             IPINTS         ON           [  1]   ***   
       PARA_PRINT           IPPRIN              0               ***   
       PERT_ORB             IPTORB         STANDARD     [  0]   ***   
       POINTS               IGRDFD              0               ***   
       PRINT                IPRNT               4               ***   
       PROPS                IPROPS             OFF      [  0]   ***   
       PROP_INTEGR          IINTYP         INTERNAL     [  0]   ***   
       PSI                  IPSI           OFF          [  0]   ***   
       QUARTIC              IQUART         OFF          [  0]   ***   
       RAMAN_INT            IRAMIN         OFF          [  0]   ***   
       RAMAN_ORB            IRAMRE         UNRELAXED    [  0]   ***   
       RDO                  IRDOFM             OFF      [  0]   ***   
       REFERENCE            IREFNC             ROHF     [  2]   ***   
       RELATIVIST           IRELAT         OFF          [  0]   ***   
       RELAX_DENS           IRDENS             OFF      [  0]   ***   
       RESET_FLAGS          IRESET             OFF      [  0]   ***   
       RESTART_CC           ICCRES         OFF          [  0]   ***   
       ROT_EVEC             ROTVEC              0               ***   
       SAVE_INTS            ISVINT              ON      [  1]   ***   
       SCALE_ON             ISTCRT              0               ***   
       SCF_CONV             ISCFCV          10D- 11             ***   
       SCF_DAMPING          IDAMP               0             x 10-3  
       SCF_EXPORDE          IRPPOR              6               ***   
       SCF_EXPSTAR          IRPPLS              5               ***   
       SCF_EXTRAPO          IRPP                ON      [  1]   ***   
       SCF_MAXCYC           ISCFCY            ***              cycles 
       SCF_NOSTOP           ISCFST         OFF          [  0]   ***   
       SCF_PRINT            ISCFPR              0               ***   
       SD_FIELD             IFINSD              0             x 10-6  
       SEQUENCE             ISEQUE         OFF          [  0]   ***   
       SOPERT               IPERSO         OFF          [  0]   ***   
       SPHERICAL            IDFGHI             ON       [  1]   ***   
       SPINORBIT            ISOCAL         OFF          [  0]   ***   
       SPINROTATIO          ISRCON         OFF          [  0]   ***   
       SPIN_FLIP            ISPFLP         OFF          [  0]   ***   
       SPIN_ORBIT           ISPORB         OFF          [  0]   ***   
       SPIN_SCAL            ISCSMP         OFF          [  0]   ***   
       SUBGROUP             ISUBGP         DEFAULT      [  0]   ***   
       SUBGRPAXIS           ISBXYZ         X            [  0]   ***   
       SYMMETRY             ISYM             ON         [  0]   ***   
       SYM_CHECK            ISYMCK         OVERRIDE     [  1]   ***   
       T3_EXTRAPOL          IT3EXT         ON           [  1]   ***   
       TAMP_SUM             IEVERY              5               ***   
       TESTSUITE            ITESTS         OFF          [  0]   ***   
       THERMOCH             ITHERM         OFF          [  0]   ***   
       TOL_CHOLESK          ITOLCH          10D-  4             ***   
       TRANGRAD             IRESRM         OFF          [  0]   ***   
       TRANS_INV            ITRAIN         USE          [  0]   ***   
       TREAT_PERT           ITREAT         SIMULTANEOUS [  0]   ***   
       UIJ_THRESHO          IUIJTH              1               ***   
       UNITS                IUNITS         ANGSTROM     [  0]   ***   
       UNOS                 IUNOS          OFF          [  0]   ***   
       UPDATE_HESS          IHUPDT         ON           [  1]   ***   
       VIBPHASE             ISETPH         STANDARD     [  0]   ***   
       VIBRATION            IVIB              NO        [  0]   ***   
       VIB_ALGORIT          IGEALG         STANDARD     [  0]   ***   
       VNATORB              IVNORB         OFF          [  0]   ***   
       VTRAN                IVTRAN         FULL/PARTIAL [  0]   ***   
       XFIELD               IXEFLD              0             x 10-6  
       XFORM_TOL            IXFTOL          10D- 18             ***   
       YFIELD               IYEFLD              0             x 10-6  
       ZFIELD               IZEFLD              0             x 10-6  
    -------------------------------------------------------------------
  @GETXYZ-I,     4 atoms read from ZMAT.
  1  C          6    12.00000
  2  C          6    12.00000
  3  C          6    12.00000
  4  C          6    12.00000
  1  C          6    12.00000
  2  C          6    12.00000
  3  C          6    12.00000
  4  C          6    12.00000
   12.0000000000
   12.0000000000
   12.0000000000
   12.0000000000
 After translation to center of mass coordinates 
        2.314348069862    0.000000000000    0.000000000000
       -2.314348069862    0.000000000000    0.000000000000
        0.000000000000   -1.376854742958    0.000000000000
        0.000000000000    1.376854742958    0.000000000000
  Inertia tensor (amu*bohr**2)
   45.49750    0.00000    0.00000
    0.00000  128.54897    0.00000
    0.00000    0.00000  174.04646
    Inertia tensor:
       45.497495596973    0.000000000000    0.000000000000
        0.000000000000  128.548967723339    0.000000000000
        0.000000000000    0.000000000000  174.046463320312
    Principal axis orientation for molecular system: 
        2.314348069862    0.000000000000    0.000000000000
       -2.314348069862    0.000000000000    0.000000000000
        0.000000000000   -1.376854742958    0.000000000000
        0.000000000000    1.376854742958    0.000000000000
    Diagonalized inertia tensor:
       45.497495596973    0.000000000000    0.000000000000
        0.000000000000  128.548967723339    0.000000000000
        0.000000000000    0.000000000000  174.046463320312
    Eigenvectors of inertia tensor: 
        1.000000000000    0.000000000000    0.000000000000
        0.000000000000    1.000000000000    0.000000000000
        0.000000000000    0.000000000000    1.000000000000
 factor:   60.1997200000000     
   Rotational constants (in cm-1): 
          0.3458830410             0.4683018547             1.3231435975
   Rotational constants (in MHz): 
      10369.3141554309         14039.3383764398         39666.8526944171
  @SYMMETRY-I, Handedness of inertial frame: 1.00000
  @SYMMETRY-I, The symmetry group is 1-fold degenerate.
  @SYMMETRY-I, The molecule belongs to an Abelian group.
   Principal axis orientation for molecule:
        2.314348069862    0.000000000000    0.000000000000
       -2.314348069862    0.000000000000    0.000000000000
        0.000000000000   -1.376854742958    0.000000000000
        0.000000000000    1.376854742958    0.000000000000
   Reflection in plane  3 is a valid symmetry operation.
   Rotation about  3 is a valid symmetry operation 
   Reflection in plane  2 is a valid symmetry operation.
   Rotation about  2 is a valid symmetry operation 
   Reflection in plane  1 is a valid symmetry operation.
   Rotation about  1 is a valid symmetry operation 
   The molecule possesses an inversion center. 
  Symmetry bits:    7   7   1
********************************************************************************
   The full molecular point group is D2h .
   The largest Abelian subgroup of the full molecular point group is D2h .
   The computational point group is D2h .
********************************************************************************
 ----------------------------------------------------------------
 Z-matrix   Atomic            Coordinates (in bohr)
  Symbol    Number           X              Y              Z
 ----------------------------------------------------------------
     C         6         2.31434807     0.00000000     0.00000000
     C         6        -2.31434807     0.00000000     0.00000000
     C         6         0.00000000    -1.37685474     0.00000000
     C         6         0.00000000     1.37685474     0.00000000
 ----------------------------------------------------------------
   Interatomic distance matrix (Angstroms) 
 
                 C             C             C             C    
                [ 1]        [ 2]        [ 3]        [ 4]
  C    [ 1]     0.00000
  C    [ 2]     2.44940     0.00000
  C    [ 3]     1.42504     1.42504     0.00000
  C    [ 4]     1.42504     1.42504     1.45720     0.00000
  Inertia tensor (amu*bohr**2)
   45.49750    0.00000    0.00000
    0.00000  128.54897    0.00000
    0.00000    0.00000  174.04646
   Rotational constants (in cm-1): 
          1.3231435975             0.4683018547             0.3458830410
   Rotational constants (in MHz): 
      39666.8526944171         14039.3383764398         10369.3141554309
  @GTFLGS-W, Keyword #UNITS not known and is ignored.
  @GTFLGS-W, Keyword #GEOM not known and is ignored.
  @GTFLGS-W, Keyword #COORD not known and is ignored.
  @GTFLGS-W, Keyword #CC_PROG not known and is ignored.
  @GTFLGS-W, Keyword #DROPMO not known and is ignored.
  @GTFLGS-W, Keyword #CONTRACTION not known and is ignored.
  @GTFLGS-W, Keyword #EXCITE not known and is ignored.
  @GTFLGS-W, Keyword #ESTATE_CONV not known and is ignored.
  @GTFLGS-W, Keyword #ESTATE_SYM not known and is ignored.
  @GTFLGS-W, Keyword #SCF_DAMPING not known and is ignored.
  @GTFLGS-W, Keyword #OCCUPATION not known and is ignored.
  There are   4 frozen-core orbitals.
  There are   4 frozen-core orbitals.
  There are   36 basis functions.
 @GEOPT-W, Archive file not created for single-point calculation.
  @CHECKOUT-I, Total execution time (CPU/WALL):        0.35/       0.78 seconds.
--executable xjoda finished with status     0 in        0.94 seconds (walltime).
 --invoking executable--
/home/nike/cfour/cfour_v2.00beta/bin/xvmol
 Serial version of molecule started
********************************************************************************
                    Input from MOL file
********************************************************************************
INTGRL        1    0    1    0    0    0    0    0    0                         
         *** CFOUR Program System (Release V0.1) ***                            
TITLE                                                                           
    2    3 X  Y   Z   0.10E-08              0    0                              
   9999.00      3.00                                                            
          6.00000000    1    2    1    1                                        
C #1   2.314348069861678   0.000000000000000   0.000000000000000                
   10    3                                                                      
   3047.52488000000       1.834737132000000E-003  0.000000000000000E+000        
  0.000000000000000E+000                                                        
   457.369518000000       1.403732281000000E-002  0.000000000000000E+000        
  0.000000000000000E+000                                                        
   103.948685000000       6.884262226000000E-002  0.000000000000000E+000        
  0.000000000000000E+000                                                        
   29.2101553000000       0.232184443200000       0.000000000000000E+000        
  0.000000000000000E+000                                                        
   9.28666296000000       0.467941348400000       0.000000000000000E+000        
  0.000000000000000E+000                                                        
   3.16392696000000       0.362311985300000       0.000000000000000E+000        
  0.000000000000000E+000                                                        
   7.86827235000000       0.000000000000000E+000 -0.119332419800000             
  0.000000000000000E+000                                                        
   1.88128854000000       0.000000000000000E+000 -0.160854151700000             
  0.000000000000000E+000                                                        
  0.544249258000000       0.000000000000000E+000   1.14345643800000             
  0.000000000000000E+000                                                        
  0.168714478200000       0.000000000000000E+000  0.000000000000000E+000        
   1.00000000000000                                                             
    4    2                                                                      
   7.86827235000000       6.899906659000000E-002  0.000000000000000E+000        
   1.88128854000000       0.316423961000000       0.000000000000000E+000        
  0.544249258000000       0.744308290900000       0.000000000000000E+000        
  0.168714478200000       0.000000000000000E+000   1.00000000000000             
          6.00000000    1    2    1    1                                        
C #2   0.000000000000000  -1.376854742958454   0.000000000000000                
   10    3                                                                      
   3047.52488000000       1.834737132000000E-003  0.000000000000000E+000        
  0.000000000000000E+000                                                        
   457.369518000000       1.403732281000000E-002  0.000000000000000E+000        
  0.000000000000000E+000                                                        
   103.948685000000       6.884262226000000E-002  0.000000000000000E+000        
  0.000000000000000E+000                                                        
   29.2101553000000       0.232184443200000       0.000000000000000E+000        
  0.000000000000000E+000                                                        
   9.28666296000000       0.467941348400000       0.000000000000000E+000        
  0.000000000000000E+000                                                        
   3.16392696000000       0.362311985300000       0.000000000000000E+000        
  0.000000000000000E+000                                                        
   7.86827235000000       0.000000000000000E+000 -0.119332419800000             
  0.000000000000000E+000                                                        
   1.88128854000000       0.000000000000000E+000 -0.160854151700000             
  0.000000000000000E+000                                                        
  0.544249258000000       0.000000000000000E+000   1.14345643800000             
  0.000000000000000E+000                                                        
  0.168714478200000       0.000000000000000E+000  0.000000000000000E+000        
   1.00000000000000                                                             
    4    2                                                                      
   7.86827235000000       6.899906659000000E-002  0.000000000000000E+000        
   1.88128854000000       0.316423961000000       0.000000000000000E+000        
  0.544249258000000       0.744308290900000       0.000000000000000E+000        
  0.168714478200000       0.000000000000000E+000   1.00000000000000             
FINISH                                                                          
 
********************************************************************************
 One- and two-electron integrals over symmetry-adapted AOs are calculated.

  Spherical harmonics are used.
  
   2 types of atoms
   3 symmetry operations

   Reflection in the YZ-plane
   Reflection in the XZ-plane
   Reflection in the XY-plane
  
  Integrals less than  0.10E-13 are neglected.

  Atomic type number  1 :
  -----------------------

    Nuclear charge:                        6
    number of symmetry independent atoms:  1
    highest orbital type:                  p

      1 groups of CGTOs of s type
      1 groups of CGTOs of p type

    nuclear coordinates (in a.u.) are :

    C #1        2.314348069861678        0.000000000000000        0.000000000000000
  
  Atomic type number  2 :
  -----------------------

    Nuclear charge:                        6
    number of symmetry independent atoms:  1
    highest orbital type:                  p

      1 groups of CGTOs of s type
      1 groups of CGTOs of p type

    nuclear coordinates (in a.u.) are :

    C #2        0.000000000000000       -1.376854742958454        0.000000000000000
  
   Internuclear distances (A) :

     for atom C #1 (coordinates :   2.31435   0.00000   0.00000)

     C #1   2     distance is  2.449
     C #2   1     distance is  1.425

     for atom C #2 (coordinates :   0.00000  -1.37685   0.00000)

     C #2   3     distance is  1.457

   Group multiplication table :

         1   2   3   4   5   6   7   8
         2   1   4   3   6   5   8   7
         3   4   1   2   7   8   5   6
         4   3   2   1   8   7   6   5
         5   6   7   8   1   2   3   4
         6   5   8   7   2   1   4   3
         7   8   5   6   3   4   1   2
         8   7   6   5   4   3   2   1

   Gaussian basis information :

   atom                 exponent      coefficients

 C #1  1    S   
+                 1    3047.524880   0.0018347   0.0000000   0.0000000
                  2     457.369518   0.0140373   0.0000000   0.0000000
                  3     103.948685   0.0688426   0.0000000   0.0000000
                  4      29.210155   0.2321844   0.0000000   0.0000000
                  5       9.286663   0.4679413   0.0000000   0.0000000
                  6       3.163927   0.3623120   0.0000000   0.0000000
                  7       7.868272   0.0000000  -0.1193324   0.0000000
                  8       1.881289   0.0000000  -0.1608542   0.0000000
                  9       0.544249   0.0000000   1.1434564   0.0000000
                 10       0.168714   0.0000000   0.0000000   1.0000000

 C #1  2    S   
+                11    3047.524880   0.0018347   0.0000000   0.0000000
                 12     457.369518   0.0140373   0.0000000   0.0000000
                 13     103.948685   0.0688426   0.0000000   0.0000000
                 14      29.210155   0.2321844   0.0000000   0.0000000
                 15       9.286663   0.4679413   0.0000000   0.0000000
                 16       3.163927   0.3623120   0.0000000   0.0000000
                 17       7.868272   0.0000000  -0.1193324   0.0000000
                 18       1.881289   0.0000000  -0.1608542   0.0000000
                 19       0.544249   0.0000000   1.1434564   0.0000000
                 20       0.168714   0.0000000   0.0000000   1.0000000

 C #1  1    X   
+                21       7.868272   0.0689991   0.0000000
                 22       1.881289   0.3164240   0.0000000
                 23       0.544249   0.7443083   0.0000000
                 24       0.168714   0.0000000   1.0000000

 C #1  2    X   
+                25       7.868272   0.0689991   0.0000000
                 26       1.881289   0.3164240   0.0000000
                 27       0.544249   0.7443083   0.0000000
                 28       0.168714   0.0000000   1.0000000

 C #1  1    Y   
+                29       7.868272   0.0689991   0.0000000
                 30       1.881289   0.3164240   0.0000000
                 31       0.544249   0.7443083   0.0000000
                 32       0.168714   0.0000000   1.0000000

 C #1  2    Y   
+                33       7.868272   0.0689991   0.0000000
                 34       1.881289   0.3164240   0.0000000
                 35       0.544249   0.7443083   0.0000000
                 36       0.168714   0.0000000   1.0000000

 C #1  1    Z   
+                37       7.868272   0.0689991   0.0000000
                 38       1.881289   0.3164240   0.0000000
                 39       0.544249   0.7443083   0.0000000
                 40       0.168714   0.0000000   1.0000000

 C #1  2    Z   
+                41       7.868272   0.0689991   0.0000000
                 42       1.881289   0.3164240   0.0000000
                 43       0.544249   0.7443083   0.0000000
                 44       0.168714   0.0000000   1.0000000

 C #2  1    S   
+                45    3047.524880   0.0018347   0.0000000   0.0000000
                 46     457.369518   0.0140373   0.0000000   0.0000000
                 47     103.948685   0.0688426   0.0000000   0.0000000
                 48      29.210155   0.2321844   0.0000000   0.0000000
                 49       9.286663   0.4679413   0.0000000   0.0000000
                 50       3.163927   0.3623120   0.0000000   0.0000000
                 51       7.868272   0.0000000  -0.1193324   0.0000000
                 52       1.881289   0.0000000  -0.1608542   0.0000000
                 53       0.544249   0.0000000   1.1434564   0.0000000
                 54       0.168714   0.0000000   0.0000000   1.0000000

 C #2  3    S   
+                55    3047.524880   0.0018347   0.0000000   0.0000000
                 56     457.369518   0.0140373   0.0000000   0.0000000
                 57     103.948685   0.0688426   0.0000000   0.0000000
                 58      29.210155   0.2321844   0.0000000   0.0000000
                 59       9.286663   0.4679413   0.0000000   0.0000000
                 60       3.163927   0.3623120   0.0000000   0.0000000
                 61       7.868272   0.0000000  -0.1193324   0.0000000
                 62       1.881289   0.0000000  -0.1608542   0.0000000
                 63       0.544249   0.0000000   1.1434564   0.0000000
                 64       0.168714   0.0000000   0.0000000   1.0000000

 C #2  1    X   
+                65       7.868272   0.0689991   0.0000000
                 66       1.881289   0.3164240   0.0000000
                 67       0.544249   0.7443083   0.0000000
                 68       0.168714   0.0000000   1.0000000

 C #2  3    X   
+                69       7.868272   0.0689991   0.0000000
                 70       1.881289   0.3164240   0.0000000
                 71       0.544249   0.7443083   0.0000000
                 72       0.168714   0.0000000   1.0000000

 C #2  1    Y   
+                73       7.868272   0.0689991   0.0000000
                 74       1.881289   0.3164240   0.0000000
                 75       0.544249   0.7443083   0.0000000
                 76       0.168714   0.0000000   1.0000000

 C #2  3    Y   
+                77       7.868272   0.0689991   0.0000000
                 78       1.881289   0.3164240   0.0000000
                 79       0.544249   0.7443083   0.0000000
                 80       0.168714   0.0000000   1.0000000

 C #2  1    Z   
+                81       7.868272   0.0689991   0.0000000
                 82       1.881289   0.3164240   0.0000000
                 83       0.544249   0.7443083   0.0000000
                 84       0.168714   0.0000000   1.0000000

 C #2  3    Z   
+                85       7.868272   0.0689991   0.0000000
                 86       1.881289   0.3164240   0.0000000
                 87       0.544249   0.7443083   0.0000000
                 88       0.168714   0.0000000   1.0000000
 36 36
  1  2  3  4  5  6  7  8  9 10 11 12 13 14 15 16 17 18 19 20 21 22 23 24 25
 26 27 28 29 30 31 32 33 34 35 36
1

             SYMMETRY TRANSFORMATION INFO
             36 SYMMETRY ADAPTED BASIS FUNCTIONS 


          irreducible representation number 1

    1    1  C #1     1s     2   1   1.0   2   1.0
    2    2  C #1     1s     2   3   1.0   4   1.0
    3    3  C #1     1s     2   5   1.0   6   1.0
    4    4  C #1     2px    2   7   1.0   8  -1.0
    5    5  C #1     2px    2   9   1.0  10  -1.0
    6    6  C #2     1s     2  19   1.0  20   1.0
    7    7  C #2     1s     2  21   1.0  22   1.0
    8    8  C #2     1s     2  23   1.0  24   1.0
    9    9  C #2     2py    2  29   1.0  30  -1.0
   10   10  C #2     2py    2  31   1.0  32  -1.0


          irreducible representation number 2

   11    1  C #1     1s     2   1   1.0   2  -1.0
   12    2  C #1     1s     2   3   1.0   4  -1.0
   13    3  C #1     1s     2   5   1.0   6  -1.0
   14    4  C #1     2px    2   7   1.0   8   1.0
   15    5  C #1     2px    2   9   1.0  10   1.0
   16    6  C #2     2px    2  25   1.0  26   1.0
   17    7  C #2     2px    2  27   1.0  28   1.0


          irreducible representation number 3

   18    1  C #1     2py    2  11   1.0  12   1.0
   19    2  C #1     2py    2  13   1.0  14   1.0
   20    3  C #2     1s     2  19   1.0  20  -1.0
   21    4  C #2     1s     2  21   1.0  22  -1.0
   22    5  C #2     1s     2  23   1.0  24  -1.0
   23    6  C #2     2py    2  29   1.0  30   1.0
   24    7  C #2     2py    2  31   1.0  32   1.0


          irreducible representation number 4

   25    1  C #1     2py    2  11   1.0  12  -1.0
   26    2  C #1     2py    2  13   1.0  14  -1.0
   27    3  C #2     2px    2  25   1.0  26  -1.0
   28    4  C #2     2px    2  27   1.0  28  -1.0


          irreducible representation number 5

   29    1  C #1     2pz    2  15   1.0  16   1.0
   30    2  C #1     2pz    2  17   1.0  18   1.0
   31    3  C #2     2pz    2  33   1.0  34   1.0
   32    4  C #2     2pz    2  35   1.0  36   1.0


          irreducible representation number 6

   33    1  C #1     2pz    2  15   1.0  16  -1.0
   34    2  C #1     2pz    2  17   1.0  18  -1.0


          irreducible representation number 7

   35    1  C #2     2pz    2  33   1.0  34  -1.0
   36    2  C #2     2pz    2  35   1.0  36  -1.0
  Nuclear repulsion energy :   74.3239611126 a.u.
  required memory for a1 array                5020656  words 
  required memory for a2 array                2070133  words 
 @GETMEM-I,  Allocated      69 MB of main memory.
  @MOLECU-I, One electron integrals (CPU/WALL):        0.02/       0.02 seconds.
  @TWOEL-I,       2474 integrals of symmetry type  I I I I
  @TWOEL-I,      10589 integrals of symmetry type  I J I J
  @TWOEL-I,       6979 integrals of symmetry type  I I J J
  @TWOEL-I,      11652 integrals of symmetry type  I J K L
  @TWOEL-I, Total number of 2-e integrals      31694.
  @MOLECU-I, Two electron integrals (CPU/WALL):        0.08/       0.14 seconds.
  @CHECKOUT-I, Total execution time (CPU/WALL):        0.12/       0.28 seconds.
--executable xvmol finished with status     0 in        0.34 seconds (walltime).
 --invoking executable--
/home/nike/cfour/cfour_v2.00beta/bin/xvmol2ja
 @GETMEM-I,  Allocated    3814 MB of main memory.
  @CHECKOUT-I, Total execution time (CPU/WALL):        0.02/       0.02 seconds.
--executable xvmol2ja finished with status     0 in        0.08 seconds (walltime).
 --invoking executable--
/home/nike/cfour/cfour_v2.00beta/bin/xvscf
  There are   36 functions in the AO basis.

  There are 8 irreducible representations.

       Irrep        # of functions
         1                 10
         2                  7
         3                  7
         4                  4
         5                  4
         6                  2
         7                  2
         8                  0


  Parameters for SCF calculation: 
        SCF reference function: ROHF  
  Maximum number of iterations: 9999
     Full symmetry point group: D2h 
     Computational point group: D2h 
        Initial density matrix: CORE                   
     SCF convergence tolerance: 10**(-11)
  DIIS convergence acceleration:  ON
          Latest start for DIIS:   5
                     DIIS order:   6

  Memory information:      84390 words required.
  Fock matrices are constructed from AO integral file.
 @GETMEM-I,  Allocated       0 MB of main memory.
  Initialization and symmetry analysis required      0.004 seconds.

  @INITGES-I, Occupancies from core Hamiltonian:

          Alpha population by irrep:   4    3    2    1    1    0    1    0
           Beta population by irrep:   4    2    2    1    1    0    1    0


 total no. of electrons in initial guess :  0.000000000000000E+000
 total no. of electrons in initial guess :  0.000000000000000E+000
  --------------------------------------------------------------------
  Iteration         Total Energy            Largest Density Difference
  --------------------------------------------------------------------
       0            74.323961112554130              0.0000000000D+00
   current occupation vector 
     4  3  2  1  1  0  1  0
     4  2  2  1  1  0  1  0
  processed                   2474  ao basis integrals from 
                     5  buffers.
  processed                   6979  ao basis integrals from 
                    12  buffers.
  processed                  10589  ao basis integrals from 
                    18  buffers.
       1          -139.833365715053446              0.7674187339D+00
   current occupation vector 
     4  3  2  1  1  0  1  0
     4  2  2  1  1  0  1  0
  processed                   2474  ao basis integrals from 
                     5  buffers.
  processed                   6979  ao basis integrals from 
                    12  buffers.
  processed                  10589  ao basis integrals from 
                    18  buffers.
       2          -145.077958096801865              0.7583821153D+00
   current occupation vector 
     4  3  2  1  1  1  0  0
     4  3  2  1  1  0  0  0
  processed                   2474  ao basis integrals from 
                     5  buffers.
  processed                   6979  ao basis integrals from 
                    12  buffers.
  processed                  10589  ao basis integrals from 
                    18  buffers.
       3          -144.632137765698076              0.7048696827D+00
   current occupation vector 
     4  2  3  1  1  0  1  0
     4  2  2  1  1  0  1  0
  processed                   2474  ao basis integrals from 
                     5  buffers.
  processed                   6979  ao basis integrals from 
                    12  buffers.
  processed                  10589  ao basis integrals from 
                    18  buffers.
       4          -146.112027834020182              0.7048353982D+00
   current occupation vector 
     4  3  2  1  1  1  0  0
     4  3  2  1  1  0  0  0
 
 sum over diagonal and offdiagdiagonal of C(T)*S*C for irrep
                     1
 -7.704947790898586E-014  5.030062983694740E-014
 reorthoganalization of MOs is carried out
 sum over diagonal and offdiagdiagonal of C(T)*S*C for irrep
                     1
  1.021405182655144E-014 -7.066458838553434E-015
 
 sum over diagonal and offdiagdiagonal of C(T)*S*C for irrep
                     2
 -5.384581669432009E-014  4.810671412565964E-014
 reorthoganalization of MOs is carried out
 sum over diagonal and offdiagdiagonal of C(T)*S*C for irrep
                     2
 -2.331468351712829E-015 -1.960365110813167E-015
 
 sum over diagonal and offdiagdiagonal of C(T)*S*C for irrep
                     3
  6.350475700855895E-014 -8.061587374406410E-015
 reorthoganalization of MOs is carried out
 sum over diagonal and offdiagdiagonal of C(T)*S*C for irrep
                     3
 -4.662936703425657E-015  2.422723573819411E-015
 
 sum over diagonal and offdiagdiagonal of C(T)*S*C for irrep
                     4
  1.043609643147647E-014  2.109673190121450E-015
 reorthoganalization of MOs is carried out
 sum over diagonal and offdiagdiagonal of C(T)*S*C for irrep
                     4
 -3.330669073875470E-016 -7.905912111865264E-016
 
 sum over diagonal and offdiagdiagonal of C(T)*S*C for irrep
                     5
  7.105427357601002E-015 -7.866150480033837E-015
 reorthoganalization of MOs is carried out
 sum over diagonal and offdiagdiagonal of C(T)*S*C for irrep
                     5
 -5.551115123125783E-016 -3.837918079766676E-016
 
 sum over diagonal and offdiagdiagonal of C(T)*S*C for irrep
                     6
  2.220446049250313E-015  8.326672684688674E-016
 reorthoganalization of MOs is carried out
 sum over diagonal and offdiagdiagonal of C(T)*S*C for irrep
                     6
  0.000000000000000E+000 -3.608224830031759E-016
 
 sum over diagonal and offdiagdiagonal of C(T)*S*C for irrep
                     7
  2.664535259100376E-015 -4.440892098500626E-016
 reorthoganalization of MOs is carried out
 sum over diagonal and offdiagdiagonal of C(T)*S*C for irrep
                     7
 -2.220446049250313E-016 -1.665334536937735E-016
  processed                   2474  ao basis integrals from 
                     5  buffers.
  processed                   6979  ao basis integrals from 
                    12  buffers.
  processed                  10589  ao basis integrals from 
                    18  buffers.
       5          -145.185555363350716              0.6144808417D+00
   current occupation vector 
     4  2  3  1  1  0  1  0
     4  2  2  1  1  0  1  0
  processed                   2474  ao basis integrals from 
                     5  buffers.
  processed                   6979  ao basis integrals from 
                    12  buffers.
  processed                  10589  ao basis integrals from 
                    18  buffers.
       6          -150.519527273036147              0.6142808572D+00
   current occupation vector 
     5  3  2  1  1  0  0  0
     4  3  2  1  1  0  0  0
  processed                   2474  ao basis integrals from 
                     5  buffers.
  processed                   6979  ao basis integrals from 
                    12  buffers.
  processed                  10589  ao basis integrals from 
                    18  buffers.
       7          -150.611940695388625              0.8705725302D-01
   current occupation vector 
     5  3  2  1  1  0  0  0
     4  3  2  1  1  0  0  0
  processed                   2474  ao basis integrals from 
                     5  buffers.
  processed                   6979  ao basis integrals from 
                    12  buffers.
  processed                  10589  ao basis integrals from 
                    18  buffers.
       8          -150.625883762365163              0.4170605505D-01
   current occupation vector 
     5  3  2  1  1  0  0  0
     4  3  2  1  1  0  0  0
  processed                   2474  ao basis integrals from 
                     5  buffers.
  processed                   6979  ao basis integrals from 
                    12  buffers.
  processed                  10589  ao basis integrals from 
                    18  buffers.
       9          -150.626348126205073              0.7503269148D-02
   current occupation vector 
     5  3  2  1  1  0  0  0
     4  3  2  1  1  0  0  0
 
 sum over diagonal and offdiagdiagonal of C(T)*S*C for irrep
                     1
  1.110223024625157E-014  3.516430497281303E-014
 reorthoganalization of MOs is carried out
 sum over diagonal and offdiagdiagonal of C(T)*S*C for irrep
                     1
 -4.440892098500626E-016 -9.883232303387870E-015
 
 sum over diagonal and offdiagdiagonal of C(T)*S*C for irrep
                     2
  2.486899575160351E-014  1.674489340209974E-014
 reorthoganalization of MOs is carried out
 sum over diagonal and offdiagdiagonal of C(T)*S*C for irrep
                     2
  1.776356839400250E-015  6.968359637397790E-015
 
 sum over diagonal and offdiagdiagonal of C(T)*S*C for irrep
                     3
  9.880984919163893E-015  6.525525263391972E-016
 reorthoganalization of MOs is carried out
 sum over diagonal and offdiagdiagonal of C(T)*S*C for irrep
                     3
 -4.662936703425657E-015 -1.618256940384002E-015
 
 sum over diagonal and offdiagdiagonal of C(T)*S*C for irrep
                     4
  1.443289932012704E-014 -1.069358038448934E-015
 reorthoganalization of MOs is carried out
 sum over diagonal and offdiagdiagonal of C(T)*S*C for irrep
                     4
 -6.661338147750939E-016  1.144870021718664E-015
 
 sum over diagonal and offdiagdiagonal of C(T)*S*C for irrep
                     5
  2.553512956637860E-015 -2.556601716208267E-015
 reorthoganalization of MOs is carried out
 sum over diagonal and offdiagdiagonal of C(T)*S*C for irrep
                     5
  0.000000000000000E+000  3.006269800573585E-016
 
 sum over diagonal and offdiagdiagonal of C(T)*S*C for irrep
                     6
  2.220446049250313E-016 -7.216449660063518E-016
 reorthoganalization of MOs is carried out
 sum over diagonal and offdiagdiagonal of C(T)*S*C for irrep
                     6
 -1.110223024625157E-016  2.775557561562891E-016
 
 sum over diagonal and offdiagdiagonal of C(T)*S*C for irrep
                     7
 -3.219646771412954E-015  7.216449660063518E-016
 reorthoganalization of MOs is carried out
 sum over diagonal and offdiagdiagonal of C(T)*S*C for irrep
                     7
 -2.220446049250313E-016  0.000000000000000E+000
  processed                   2474  ao basis integrals from 
                     5  buffers.
  processed                   6979  ao basis integrals from 
                    12  buffers.
  processed                  10589  ao basis integrals from 
                    18  buffers.
      10          -150.626365166193750              0.1541744343D-02
   current occupation vector 
     5  3  2  1  1  0  0  0
     4  3  2  1  1  0  0  0
  processed                   2474  ao basis integrals from 
                     5  buffers.
  processed                   6979  ao basis integrals from 
                    12  buffers.
  processed                  10589  ao basis integrals from 
                    18  buffers.
      11          -150.626365473901444              0.2143319353D-03
   current occupation vector 
     5  3  2  1  1  0  0  0
     4  3  2  1  1  0  0  0
  processed                   2474  ao basis integrals from 
                     5  buffers.
  processed                   6979  ao basis integrals from 
                    12  buffers.
  processed                  10589  ao basis integrals from 
                    18  buffers.
      12          -150.626365486294901              0.4846718218D-04
   current occupation vector 
     5  3  2  1  1  0  0  0
     4  3  2  1  1  0  0  0
  processed                   2474  ao basis integrals from 
                     5  buffers.
  processed                   6979  ao basis integrals from 
                    12  buffers.
  processed                  10589  ao basis integrals from 
                    18  buffers.
      13          -150.626365486716395              0.6740750108D-05
   current occupation vector 
     5  3  2  1  1  0  0  0
     4  3  2  1  1  0  0  0
  processed                   2474  ao basis integrals from 
                     5  buffers.
  processed                   6979  ao basis integrals from 
                    12  buffers.
  processed                  10589  ao basis integrals from 
                    18  buffers.
      14          -150.626365486723387              0.1277013491D-05
   current occupation vector 
     5  3  2  1  1  0  0  0
     4  3  2  1  1  0  0  0
 
 sum over diagonal and offdiagdiagonal of C(T)*S*C for irrep
                     1
  3.608224830031759E-014  2.592970231196889E-014
 reorthoganalization of MOs is carried out
 sum over diagonal and offdiagdiagonal of C(T)*S*C for irrep
                     1
  4.329869796038111E-015 -1.211350052044364E-014
 
 sum over diagonal and offdiagdiagonal of C(T)*S*C for irrep
                     2
  9.547918011776346E-015 -8.103340867877862E-016
 reorthoganalization of MOs is carried out
 sum over diagonal and offdiagdiagonal of C(T)*S*C for irrep
                     2
 -2.220446049250313E-016  5.316511559866356E-015
 
 sum over diagonal and offdiagdiagonal of C(T)*S*C for irrep
                     3
  6.994405055138486E-015  5.923642232835329E-015
 reorthoganalization of MOs is carried out
 sum over diagonal and offdiagdiagonal of C(T)*S*C for irrep
                     3
 -2.109423746787797E-015 -8.885234339608845E-015
 
 sum over diagonal and offdiagdiagonal of C(T)*S*C for irrep
                     4
  3.552713678800501E-015  1.946772596515525E-015
 reorthoganalization of MOs is carried out
 sum over diagonal and offdiagdiagonal of C(T)*S*C for irrep
                     4
 -1.554312234475219E-015  1.139077342710714E-015
 
 sum over diagonal and offdiagdiagonal of C(T)*S*C for irrep
                     5
  2.664535259100376E-015  2.099867050301775E-016
 reorthoganalization of MOs is carried out
 sum over diagonal and offdiagdiagonal of C(T)*S*C for irrep
                     5
  3.330669073875470E-016 -6.421521626551374E-016
 
 sum over diagonal and offdiagdiagonal of C(T)*S*C for irrep
                     6
 -1.554312234475219E-015  8.326672684688674E-016
 reorthoganalization of MOs is carried out
 sum over diagonal and offdiagdiagonal of C(T)*S*C for irrep
                     6
 -2.220446049250313E-016 -5.551115123125783E-017
 
 sum over diagonal and offdiagdiagonal of C(T)*S*C for irrep
                     7
 -8.881784197001252E-016  4.996003610813204E-016
 reorthoganalization of MOs is carried out
 sum over diagonal and offdiagdiagonal of C(T)*S*C for irrep
                     7
  0.000000000000000E+000  1.665334536937735E-016
  processed                   2474  ao basis integrals from 
                     5  buffers.
  processed                   6979  ao basis integrals from 
                    12  buffers.
  processed                  10589  ao basis integrals from 
                    18  buffers.
      15          -150.626365486723159              0.1378054492D-06
   current occupation vector 
     5  3  2  1  1  0  0  0
     4  3  2  1  1  0  0  0
  processed                   2474  ao basis integrals from 
                     5  buffers.
  processed                   6979  ao basis integrals from 
                    12  buffers.
  processed                  10589  ao basis integrals from 
                    18  buffers.
      16          -150.626365486722875              0.2894610934D-07
   current occupation vector 
     5  3  2  1  1  0  0  0
     4  3  2  1  1  0  0  0
  processed                   2474  ao basis integrals from 
                     5  buffers.
  processed                   6979  ao basis integrals from 
                    12  buffers.
  processed                  10589  ao basis integrals from 
                    18  buffers.
      17          -150.626365486722761              0.7056120799D-08
   current occupation vector 
     5  3  2  1  1  0  0  0
     4  3  2  1  1  0  0  0
  processed                   2474  ao basis integrals from 
                     5  buffers.
  processed                   6979  ao basis integrals from 
                    12  buffers.
  processed                  10589  ao basis integrals from 
                    18  buffers.
      18          -150.626365486722875              0.8958804809D-09
   current occupation vector 
     5  3  2  1  1  0  0  0
     4  3  2  1  1  0  0  0
  processed                   2474  ao basis integrals from 
                     5  buffers.
  processed                   6979  ao basis integrals from 
                    12  buffers.
  processed                  10589  ao basis integrals from 
                    18  buffers.
      19          -150.626365486723159              0.2908845942D-09
   current occupation vector 
     5  3  2  1  1  0  0  0
     4  3  2  1  1  0  0  0
 
 sum over diagonal and offdiagdiagonal of C(T)*S*C for irrep
                     1
  3.785860513971784E-014  1.350197346773130E-014
 reorthoganalization of MOs is carried out
 sum over diagonal and offdiagdiagonal of C(T)*S*C for irrep
                     1
 -8.215650382226158E-015 -1.951564738474193E-014
 
 sum over diagonal and offdiagdiagonal of C(T)*S*C for irrep
                     2
  1.909583602355269E-014  6.291962175139679E-015
 reorthoganalization of MOs is carried out
 sum over diagonal and offdiagdiagonal of C(T)*S*C for irrep
                     2
 -6.883382752675971E-015 -2.182646472437325E-015
 
 sum over diagonal and offdiagdiagonal of C(T)*S*C for irrep
                     3
  1.187938636348917E-014  7.474659503074903E-015
 reorthoganalization of MOs is carried out
 sum over diagonal and offdiagdiagonal of C(T)*S*C for irrep
                     3
 -4.773959005888173E-015 -4.359281751753403E-015
 
 sum over diagonal and offdiagdiagonal of C(T)*S*C for irrep
                     4
  9.325873406851315E-015  2.503899716528806E-016
 reorthoganalization of MOs is carried out
 sum over diagonal and offdiagdiagonal of C(T)*S*C for irrep
                     4
  4.440892098500626E-016 -1.188699567715925E-016
 
 sum over diagonal and offdiagdiagonal of C(T)*S*C for irrep
                     5
 -6.772360450213455E-015 -2.237512046959904E-015
 reorthoganalization of MOs is carried out
 sum over diagonal and offdiagdiagonal of C(T)*S*C for irrep
                     5
  6.661338147750939E-016 -1.607711620875136E-018
 
 sum over diagonal and offdiagdiagonal of C(T)*S*C for irrep
                     6
  4.440892098500626E-016  5.551115123125783E-017
 reorthoganalization of MOs is carried out
 sum over diagonal and offdiagdiagonal of C(T)*S*C for irrep
                     6
 -2.220446049250313E-016  5.551115123125783E-017
 
 sum over diagonal and offdiagdiagonal of C(T)*S*C for irrep
                     7
  1.110223024625157E-015  0.000000000000000E+000
 reorthoganalization of MOs is carried out
 sum over diagonal and offdiagdiagonal of C(T)*S*C for irrep
                     7
 -2.220446049250313E-016  0.000000000000000E+000
  processed                   2474  ao basis integrals from 
                     5  buffers.
  processed                   6979  ao basis integrals from 
                    12  buffers.
  processed                  10589  ao basis integrals from 
                    18  buffers.
      20          -150.626365486722705              0.4538205922D-10
   current occupation vector 
     5  3  2  1  1  0  0  0
     4  3  2  1  1  0  0  0

  SCF has converged.

 Density matrix saved to file den.dat
 total alpha spin electron number:   12.0000000000000     
 total  beta spin electron number:   11.0000000000000     
  processed                   2474  ao basis integrals from 
                     5  buffers.
  processed                   6979  ao basis integrals from 
                    12  buffers.
  processed                  10589  ao basis integrals from 
                    18  buffers.
     E(ROHF)=      -150.626365486723159              0.8523071138D-11


  Final occupancies:

     Alpha population by irrep:   5    3    2    1    1    0    0    0
      Beta population by irrep:   4    3    2    1    1    0    0    0



  ORBITAL EIGENVECTORS

  SYMMETRY BLOCK 1 (ALPHA)

                          MO #  1       MO #  2       MO #  3       MO #  4

    BASIS/ORB E          -11.72926     -11.68607      -1.73266      -0.86987
                        ----------    ----------    ----------    ----------
    1; C #1                0.02041       0.70433       0.08105       0.12491
    2; C #1               -0.00060       0.01613      -0.18489      -0.24051
    3; C #1                0.00650      -0.01144       0.00891      -0.60597
    4; C #1                0.00024      -0.00328       0.13919      -0.22428
    5; C #1               -0.00282       0.00529      -0.02826       0.03577
    6; C #2                0.70411      -0.02077       0.12838      -0.02173
    7; C #2                0.01685      -0.00162      -0.27910       0.07238
    8; C #2               -0.00995       0.00866      -0.16681       0.22700
    9; C #2                0.00167      -0.00045      -0.17969       0.21484
   10; C #2               -0.00241       0.00163      -0.03174       0.12218


                          MO #  5       MO #  6       MO #  7       MO #  8

    BASIS/ORB E           -0.78382       0.14294       0.37715       0.45310
                        ----------    ----------    ----------    ----------
    1; C #1                0.05793       0.10261       0.02296       0.01480
    2; C #1               -0.15599      -0.24246       0.21677       0.56080
    3; C #1               -0.17109      -1.87470       0.28766      -1.21916
    4; C #1               -0.04327       0.39850      -0.32976      -0.39622
    5; C #1               -0.05554       1.44058       0.17062       1.09527
    6; C #2               -0.08989      -0.09034       0.06765       0.00053
    7; C #2                0.19191       0.04659       0.25893       0.80455
    8; C #2                0.34334       2.24929      -0.17595       0.40043
    9; C #2               -0.39037       0.21500       0.54831      -0.27600
   10; C #2               -0.17104       0.63627      -1.02474       0.45296


                          MO #  9       MO # 10

    BASIS\ORB E            0.54369       1.02664
                        ----------    ----------
    1; C #1                0.00445       0.02767
    2; C #1               -0.53787       1.31742
    3; C #1               -0.31656      -4.93096
    4; C #1               -0.56994      -0.02125
    5; C #1                0.88431       2.25600
    6; C #2                0.00805      -0.03838
    7; C #2               -0.75645      -1.13973
    8; C #2                1.30713       4.87970
    9; C #2               -0.23451      -0.08139
   10; C #2                0.58400       1.16062


  SYMMETRY BLOCK 2 (ALPHA)

                          MO # 11       MO # 12       MO # 13       MO # 14

    BASIS/ORB E          -11.68616      -1.35011      -0.72003       0.16414
                        ----------    ----------    ----------    ----------
   11; C #1                0.70467       0.12970       0.08549       0.10472
   12; C #1                0.01666      -0.28997      -0.16265      -0.15794
   13; C #1               -0.01276      -0.25457      -0.28746      -3.05225
   14; C #1               -0.00347       0.16592      -0.38944       0.11251
   15; C #1                0.00544       0.05536      -0.18785       1.48002
   16; C #2               -0.00060      -0.29278       0.20549       0.17485
   17; C #2                0.00429       0.01398      -0.01116       2.11519


                          MO # 15       MO # 16       MO # 17

    BASIS\ORB E            0.50680       0.60823       0.91276
                        ----------    ----------    ----------
   11; C #1                0.04155       0.03803       0.02435
   12; C #1                0.11701       0.30952       1.61296
   13; C #1                0.04974      -0.30375      -4.85739
   14; C #1               -0.50733       0.58816      -0.18911
   15; C #1                1.05759      -0.13220       1.81271
   16; C #2                0.36486       0.74533      -0.22468
   17; C #2               -0.56595      -0.42041       2.21178


  SYMMETRY BLOCK 3 (ALPHA)

                          MO # 18       MO # 19       MO # 20       MO # 21

    BASIS/ORB E          -11.72814      -1.11717      -0.20147       0.07735
                        ----------    ----------    ----------    ----------
   18; C #1                0.00011       0.21653       0.39020       0.09096
   19; C #1               -0.00167       0.02910       0.34764       0.72427
   20; C #2                0.70452       0.15115      -0.03506      -0.12022
   21; C #2                0.01799      -0.33139       0.06720       0.20338
   22; C #2               -0.01567      -0.55547       0.02182       2.68841
   23; C #2                0.00216       0.04601      -0.30347       0.20108
   24; C #2               -0.00555      -0.09468      -0.54685       1.54119


                          MO # 22       MO # 23       MO # 24

    BASIS\ORB E            0.49555       0.62444       0.93933
                        ----------    ----------    ----------
   18; C #1                0.04325       0.78290       0.07550
   19; C #1                0.22191      -1.02281       0.71624
   20; C #2               -0.01064      -0.04981      -0.05021
   21; C #2                0.10884       0.08762      -1.72305
   22; C #2               -0.91199       0.19008       5.95469
   23; C #2                0.87994       0.14757       0.02833
   24; C #2               -1.35056       0.79253       2.33443


  SYMMETRY BLOCK 4 (ALPHA)

                          MO # 25       MO # 26       MO # 27       MO # 28

    BASIS/ORB E           -0.90468       0.17733       0.45715       0.73658
                        ----------    ----------    ----------    ----------
   25; C #1                0.31729       0.21458       0.64986       0.47467
   26; C #1                0.03314       1.21752      -0.03514      -1.94022
   27; C #2               -0.39260       0.48989      -0.20525       0.66595
   28; C #2               -0.22673       1.09213       1.19399      -2.68558


  SYMMETRY BLOCK 5 (ALPHA)

                          MO # 29       MO # 30       MO # 31       MO # 32

    BASIS/ORB E           -0.88223      -0.05329       0.41812       0.61037
                        ----------    ----------    ----------    ----------
   29; C #1                0.20207       0.37449       0.48977       0.58520
   30; C #1                0.06142       0.58871      -0.27624      -1.16471
   31; C #2                0.35508      -0.29698       0.56005      -0.49338
   32; C #2                0.21601      -0.40650      -0.49855       0.98474


  SYMMETRY BLOCK 6 (ALPHA)

                          MO # 33       MO # 34

    BASIS\ORB E           -0.28090       0.53465
                        ----------    ----------
   33; C #1                0.40316       0.77510
   34; C #1                0.42777      -0.85361


  SYMMETRY BLOCK 7 (ALPHA)

                          MO # 35       MO # 36

    BASIS\ORB E           -0.26389       0.48750
                        ----------    ----------
   35; C #2                0.44825       0.75991
   36; C #2                0.54426      -1.10196


  SYMMETRY BLOCK 8 (ALPHA)


  ORBITAL EIGENVECTORS

  SYMMETRY BLOCK 1 ( BETA)

                          MO #  1       MO #  2       MO #  3       MO #  4

    BASIS/ORB E          -11.71362     -11.68233      -1.71352      -0.83713
                        ----------    ----------    ----------    ----------
    1; C #1                0.02041       0.70433       0.08105       0.12491
    2; C #1               -0.00060       0.01613      -0.18489      -0.24051
    3; C #1                0.00650      -0.01144       0.00891      -0.60597
    4; C #1                0.00024      -0.00328       0.13919      -0.22428
    5; C #1               -0.00282       0.00529      -0.02826       0.03577
    6; C #2                0.70411      -0.02077       0.12838      -0.02173
    7; C #2                0.01685      -0.00162      -0.27910       0.07238
    8; C #2               -0.00995       0.00866      -0.16681       0.22700
    9; C #2                0.00167      -0.00045      -0.17969       0.21484
   10; C #2               -0.00241       0.00163      -0.03174       0.12218


                          MO #  5       MO #  6       MO #  7       MO #  8

    BASIS/ORB E           -0.34738       0.15054       0.40244       0.48339
                        ----------    ----------    ----------    ----------
    1; C #1                0.05793       0.10261       0.02296       0.01480
    2; C #1               -0.15599      -0.24246       0.21677       0.56080
    3; C #1               -0.17109      -1.87470       0.28766      -1.21916
    4; C #1               -0.04327       0.39850      -0.32976      -0.39622
    5; C #1               -0.05554       1.44058       0.17062       1.09527
    6; C #2               -0.08989      -0.09034       0.06765       0.00053
    7; C #2                0.19191       0.04659       0.25893       0.80455
    8; C #2                0.34334       2.24929      -0.17595       0.40043
    9; C #2               -0.39037       0.21500       0.54831      -0.27600
   10; C #2               -0.17104       0.63627      -1.02474       0.45296


                          MO #  9       MO # 10

    BASIS\ORB E            0.55208       1.03659
                        ----------    ----------
    1; C #1                0.00445       0.02767
    2; C #1               -0.53787       1.31742
    3; C #1               -0.31656      -4.93096
    4; C #1               -0.56994      -0.02125
    5; C #1                0.88431       2.25600
    6; C #2                0.00805      -0.03838
    7; C #2               -0.75645      -1.13973
    8; C #2                1.30713       4.87970
    9; C #2               -0.23451      -0.08139
   10; C #2                0.58400       1.16062


  SYMMETRY BLOCK 2 ( BETA)

                          MO # 11       MO # 12       MO # 13       MO # 14

    BASIS/ORB E          -11.68244      -1.33689      -0.69291       0.19069
                        ----------    ----------    ----------    ----------
   11; C #1                0.70467       0.12970       0.08549       0.10472
   12; C #1                0.01666      -0.28997      -0.16265      -0.15794
   13; C #1               -0.01276      -0.25457      -0.28746      -3.05225
   14; C #1               -0.00347       0.16592      -0.38944       0.11251
   15; C #1                0.00544       0.05536      -0.18785       1.48002
   16; C #2               -0.00060      -0.29278       0.20549       0.17485
   17; C #2                0.00429       0.01398      -0.01116       2.11519


                          MO # 15       MO # 16       MO # 17

    BASIS\ORB E            0.51241       0.62183       0.91916
                        ----------    ----------    ----------
   11; C #1                0.04155       0.03803       0.02435
   12; C #1                0.11701       0.30952       1.61296
   13; C #1                0.04974      -0.30375      -4.85739
   14; C #1               -0.50733       0.58816      -0.18911
   15; C #1                1.05759      -0.13220       1.81271
   16; C #2                0.36486       0.74533      -0.22468
   17; C #2               -0.56595      -0.42041       2.21178


  SYMMETRY BLOCK 3 ( BETA)

                          MO # 18       MO # 19       MO # 20       MO # 21

    BASIS/ORB E          -11.71292      -1.01168      -0.09263       0.08861
                        ----------    ----------    ----------    ----------
   18; C #1                0.00011       0.21653       0.39020       0.09096
   19; C #1               -0.00167       0.02910       0.34764       0.72427
   20; C #2                0.70452       0.15115      -0.03506      -0.12022
   21; C #2                0.01799      -0.33139       0.06720       0.20338
   22; C #2               -0.01567      -0.55547       0.02182       2.68841
   23; C #2                0.00216       0.04601      -0.30347       0.20108
   24; C #2               -0.00555      -0.09468      -0.54685       1.54119


                          MO # 22       MO # 23       MO # 24

    BASIS\ORB E            0.55905       0.63048       0.95624
                        ----------    ----------    ----------
   18; C #1                0.04325       0.78290       0.07550
   19; C #1                0.22191      -1.02281       0.71624
   20; C #2               -0.01064      -0.04981      -0.05021
   21; C #2                0.10884       0.08762      -1.72305
   22; C #2               -0.91199       0.19008       5.95469
   23; C #2                0.87994       0.14757       0.02833
   24; C #2               -1.35056       0.79253       2.33443


  SYMMETRY BLOCK 4 ( BETA)

                          MO # 25       MO # 26       MO # 27       MO # 28

    BASIS/ORB E           -0.88799       0.19264       0.46869       0.74325
                        ----------    ----------    ----------    ----------
   25; C #1                0.31729       0.21458       0.64986       0.47467
   26; C #1                0.03314       1.21752      -0.03514      -1.94022
   27; C #2               -0.39260       0.48989      -0.20525       0.66595
   28; C #2               -0.22673       1.09213       1.19399      -2.68558


  SYMMETRY BLOCK 5 ( BETA)

                          MO # 29       MO # 30       MO # 31       MO # 32

    BASIS/ORB E           -0.86363      -0.03586       0.42442       0.61571
                        ----------    ----------    ----------    ----------
   29; C #1                0.20207       0.37449       0.48977       0.58520
   30; C #1                0.06142       0.58871      -0.27624      -1.16471
   31; C #2                0.35508      -0.29698       0.56005      -0.49338
   32; C #2                0.21601      -0.40650      -0.49855       0.98474


  SYMMETRY BLOCK 6 ( BETA)

                          MO # 33       MO # 34

    BASIS\ORB E           -0.27528       0.53770
                        ----------    ----------
   33; C #1                0.40316       0.77510
   34; C #1                0.42777      -0.85361


  SYMMETRY BLOCK 7 ( BETA)

                          MO # 35       MO # 36

    BASIS\ORB E           -0.23139       0.49711
                        ----------    ----------
   35; C #2                0.44825       0.75991
   36; C #2                0.54426      -1.10196


  SYMMETRY BLOCK 8 ( BETA)


       The average multiplicity is    2.0000000
  The expectation value of S**2 is    0.7500000

 @PUTMOS-I, Writing converged MOs to NEWMOS. 
 @PUTMOS-I, Symmetry   1 Full Blocks  2 Partial Blocksize   2
 @PUTMOS-I, Symmetry   2 Full Blocks  1 Partial Blocksize   3
 @PUTMOS-I, Symmetry   3 Full Blocks  1 Partial Blocksize   3
 @PUTMOS-I, Symmetry   4 Full Blocks  1 Partial Blocksize   0
 @PUTMOS-I, Symmetry   5 Full Blocks  1 Partial Blocksize   0
 @PUTMOS-I, Symmetry   6 Full Blocks  0 Partial Blocksize   2
 @PUTMOS-I, Symmetry   7 Full Blocks  0 Partial Blocksize   2
 @PUTMOS-I, Symmetry   8 Full Blocks  0 Partial Blocksize   0
  @DMPJOB-I, Rotating orbitals to semicanonical basis.
             *** Eigenvalues correspond to new basis. ***

--------------------------------------------------------------------------------
Eigenvalue    -11.729264    -11.728136    -11.686164    -11.686074     -1.732779
 Symmetry          Ag           B3u           B2u            Ag            Ag    
--------------------------------------------------------------------------------
   1 S         0.0173878     0.0000000     0.7046718     0.7044185     0.0807612
   1 S        -0.0006738     0.0000000     0.0166467     0.0161132    -0.1838972
   1 S         0.0064880     0.0000000    -0.0127728    -0.0114299     0.0089974
   1 PX        0.0002093     0.0000000    -0.0034636    -0.0032777     0.1389993
   1 PY        0.0000000     0.0000379     0.0000000     0.0000000     0.0000000
   1 PZ        0.0000000     0.0000000     0.0000000     0.0000000     0.0000000
   1 PX       -0.0028568     0.0000000     0.0054396     0.0052699    -0.0275607
   1 PY        0.0000000    -0.0016842     0.0000000     0.0000000     0.0000000
   1 PZ        0.0000000     0.0000000     0.0000000     0.0000000     0.0000000
   2 S         0.0173878     0.0000000    -0.7046718     0.7044185     0.0807612
   2 S        -0.0006738     0.0000000    -0.0166467     0.0161132    -0.1838972
   2 S         0.0064880     0.0000000     0.0127728    -0.0114299     0.0089974
   2 PX       -0.0002093     0.0000000    -0.0034636     0.0032777    -0.1389993
   2 PY        0.0000000     0.0000379     0.0000000     0.0000000     0.0000000
   2 PZ        0.0000000     0.0000000     0.0000000     0.0000000     0.0000000
   2 PX        0.0028568     0.0000000     0.0054396    -0.0052699     0.0275607
   2 PY        0.0000000    -0.0016842     0.0000000     0.0000000     0.0000000
   2 PZ        0.0000000     0.0000000     0.0000000     0.0000000     0.0000000
   3 S         0.7041338     0.7044702     0.0000000    -0.0177532     0.1294508
   3 S         0.0169944     0.0181092     0.0000000    -0.0015407    -0.2809368
   3 S        -0.0098242    -0.0154778     0.0000000     0.0086365    -0.1698389
   3 PX        0.0000000     0.0000000    -0.0006063     0.0000000     0.0000000
   3 PY        0.0015774     0.0021439     0.0000000    -0.0004699    -0.1748449
   3 PZ        0.0000000     0.0000000     0.0000000     0.0000000     0.0000000
   3 PX        0.0000000     0.0000000     0.0042942     0.0000000     0.0000000
   3 PY       -0.0024724    -0.0055175     0.0000000     0.0016108    -0.0295426
   3 PZ        0.0000000     0.0000000     0.0000000     0.0000000     0.0000000
   4 S         0.7041338    -0.7044702     0.0000000    -0.0177532     0.1294508
   4 S         0.0169944    -0.0181092     0.0000000    -0.0015407    -0.2809368
   4 S        -0.0098242     0.0154778     0.0000000     0.0086365    -0.1698389
   4 PX        0.0000000     0.0000000    -0.0006063     0.0000000     0.0000000
   4 PY       -0.0015774     0.0021439     0.0000000     0.0004699     0.1748449
   4 PZ        0.0000000     0.0000000     0.0000000     0.0000000     0.0000000
   4 PX        0.0000000     0.0000000     0.0042942     0.0000000     0.0000000
   4 PY        0.0024724    -0.0055175     0.0000000    -0.0016108     0.0295426
   4 PZ        0.0000000     0.0000000     0.0000000     0.0000000     0.0000000
--------------------------------------------------------------------------------
Eigenvalue     -1.350117     -1.117172     -0.904677     -0.892174     -0.882233
 Symmetry         B2u           B3u           B1g            Ag           B1u    
--------------------------------------------------------------------------------
   1 S         0.1299693     0.0000000     0.0000000     0.0892691     0.0000000
   1 S        -0.2905295     0.0000000     0.0000000    -0.1532973     0.0000000
[...]
[  3   2  29  29]-0.05476 [  5   2  26  29]-0.05475 [  2   5  18   8]-0.05404
[  8   2  26   8]-0.05004 [  5   2  29  26]-0.04928 [  3   4  26  29]-0.04730
[  6   5  31  31]-0.04729 [  3   4  29  26]-0.04670 [  8   7  29  29]-0.04459
-----------------------------------------------------------------------------
   Norm of T2AB vector (     4654 symmetry allowed elements):  0.4290550066.
-----------------------------------------------------------------------------
  W(mnij) AA contribution =  0.0054940139 a.u.
  W(mnij) BB contribution =  0.0062173243 a.u.
  W(mnij) AB contribution =  0.0907288553 a.u.
  W(abef) AA contribution =  0.0064494028 a.u.
  W(abef) BB contribution =  0.0073376871 a.u.
  W(abef) AB contribution =  0.1008267608 a.u.
  W(mbej) AA contribution =  -0.0080920379 a.u.
  W(mbej) BB contribution =  -0.0100872676 a.u.
  W(mbej) AB contribution = -0.2812985829 a.u.
   After  26 iterations, amplitude changes are:
    -------------------------------------------------------------------
                 Spin      RMS          Max.      Max. change for
     Amplitude   Case     Change       Change       i    j    a    b
    -------------------------------------------------------------------
        T1        AA    0.0000000000-0.0000000002    6        18
        T1        BB    0.0000000000 0.0000000008    2         8
        T2        AA    0.0000000000 0.0000000002    5    3   29   26
        T2        BB    0.0000000000 0.0000000003    4    2   29   26
        T2        AB    0.0000000000-0.0000000002    3    2   18   18
    -------------------------------------------------------------------
   The AA contribution to the correlation energy is:   -0.0403504 a.u.
   The BB contribution to the correlation energy is:   -0.0376914 a.u.
   The AB contribution to the correlation energy is:   -0.2669880 a.u.
   The total correlation energy is -0.345029789671 a.u.
   The total correlation energy is -0.345029789671 a.u.
  Current DIIS expansion coefficients : 
 [   1] 1.4272858158 [   2] 0.0012427708 [   3] 0.0736484949 [   4]-0.0886845907
 [   5]-0.4134924908
  Convergence information after    26 iterations: 
  Largest element of residual vector :  0.81578719E-09.
  Largest element of DIIS residual   :  0.50946792E-09.
  Amplitude equations converged in    26iterations.
   The AA contribution to the correlation energy is:   -0.0403504 a.u.
   The BB contribution to the correlation energy is:   -0.0376914 a.u.
   The AB contribution to the correlation energy is:   -0.2669880 a.u.
   The total correlation energy is -0.345029789653 a.u.
   The total correlation energy is -0.345029789653 a.u.
   The CC iterations have converged.

            ----------------------------------------------
                     Projected spin multiplicities: 
            ----------------------------------------------
             <0|S^2|0>                  =    0.7500000000.
             <0|S^2 (T2+T1**2) |0>      =   -0.0000000000.
             <0|S^2 T1|0>               =   -0.0000000029.
             Projected <0|S^2 exp(T)|0> =    0.7499999971.
             Approximate spin mult.     =    1.9999999971.
            ----------------------------------------------
   Largest T1 amplitudes for spin case AA:
   i       a                 i       a                 i       a    
-----------------------------------------------------------------------------
[  6      18    ]-0.05482 [  8      27    ] 0.02935 [  6      20    ] 0.02468
[  3       9    ] 0.01522 [  2       9    ] 0.01313 [  2      10    ] 0.00993
[  2      11    ]-0.00942 [  6      19    ] 0.00872 [  7      24    ] 0.00840
[  7      23    ] 0.00779 [  6      22    ] 0.00776 [  6      21    ] 0.00744
[  5      14    ] 0.00545 [  5      15    ] 0.00434 [  4      14    ] 0.00421
-----------------------------------------------------------------------------
   Norm of T1AA vector (       34 symmetry allowed elements):  0.0747173139.
-----------------------------------------------------------------------------
   Largest T2 amplitudes for spin case AA:
   i   j   a   b             i   j   a   b             i   j   a   b
-----------------------------------------------------------------------------
[  8   3  31  18]-0.03576 [  8   7  29  18]-0.02789 [  7   3  18  14]-0.02696
[  8   5  29   9] 0.01782 [  8   5  31  23]-0.01748 [  8   2  31  20]-0.01728
[  8   2  31  18] 0.01686 [  8   2  31  19]-0.01655 [  8   4  29   9]-0.01582
[  8   7  31  14] 0.01467 [  5   3  23  18]-0.01443 [  8   5  29  12]-0.01409
[  8   6  31  11] 0.01400 [  3   2  19  18] 0.01346 [  7   5  18  12]-0.01319
-----------------------------------------------------------------------------
   Norm of T2AA vector (     1046 symmetry allowed elements):  0.1207071060.
-----------------------------------------------------------------------------
   Largest T1 amplitudes for spin case BB:
   i       a                 i       a                 i       a    
-----------------------------------------------------------------------------
[  2       8    ]-0.18439 [  5      18    ] 0.04464 [  6      23    ] 0.02724
[  7      27    ] 0.02308 [  2       9    ] 0.02285 [  7      26    ] 0.02180
[  1       8    ] 0.02142 [  6      24    ] 0.01748 [  2      12    ]-0.01340
[  4      14    ]-0.01282 [  3      16    ] 0.01144 [  3      14    ] 0.01123
[  5      20    ]-0.01046 [  6      25    ] 0.00886 [  2      11    ]-0.00848
-----------------------------------------------------------------------------
   Norm of T1BB vector (       31 symmetry allowed elements):  0.2003683429.
-----------------------------------------------------------------------------
   Largest T2 amplitudes for spin case BB:
   i   j   a   b             i   j   a   b             i   j   a   b
-----------------------------------------------------------------------------
[  7   4  29   8]-0.04620 [  6   4  18   8]-0.03367 [  7   6  29  18]-0.02693
[  7   4  29   9] 0.02132 [  6   2  23   8]-0.02062 [  6   4  18   9] 0.02062
[  7   5  31   8] 0.01873 [  5   4  23   8]-0.01858 [  7   3  29   9]-0.01660
[  5   2  19   8]-0.01658 [  7   4  29  12]-0.01598 [  4   3   9   8] 0.01534
[  7   6  31  14] 0.01521 [  7   4  31  23]-0.01503 [  7   2  31  19]-0.01405
-----------------------------------------------------------------------------
   Norm of T2BB vector (      855 symmetry allowed elements):  0.1283496513.
-----------------------------------------------------------------------------
   Largest T2 amplitudes for spin case AB:
       _       _                 _       _                 _       _
   i   j   a   b             i   j   a   b             i   j   a   b
-----------------------------------------------------------------------------
[  5   4  29  29]-0.10075 [  8   7  31  31]-0.09453 [  8   4  29   8]-0.07919
[  3   5  18   8] 0.07102 [  8   5  31   8] 0.05815 [  3   7  18  31]-0.05702
[  3   2  29  29]-0.05476 [  5   2  26  29]-0.05475 [  2   5  18   8]-0.05404
[  8   2  26   8]-0.05004 [  5   2  29  26]-0.04928 [  3   4  26  29]-0.04730
[  6   5  31  31]-0.04729 [  3   4  29  26]-0.04670 [  8   7  29  29]-0.04459
-----------------------------------------------------------------------------
   Norm of T2AB vector (     4654 symmetry allowed elements):  0.4290550063.
-----------------------------------------------------------------------------
       Summary of iterative solution of CC equations 
      -----------------------------------------------------------
                       Correlation           Total
       Iteration         Energy              Energy
      -----------------------------------------------------------
            0        -0.328102660164    -150.954468146887  DIIS 
            1        -0.318201600069    -150.944567086792  DIIS 
            2        -0.337117277827    -150.963482764550  DIIS 
            3        -0.338816475441    -150.965181962164  DIIS 
            4        -0.343463884107    -150.969829370830  DIIS 
            5        -0.344481935890    -150.970847422613  DIIS 
            6        -0.344899033867    -150.971264520590  DIIS 
            7        -0.344947996419    -150.971313483142  DIIS 
            8        -0.345003805854    -150.971369292578  DIIS 
            9        -0.345032747714    -150.971398234437  DIIS 
           10        -0.345025557161    -150.971391043884  DIIS 
           11        -0.345027865576    -150.971393352299  DIIS 
           12        -0.345027829207    -150.971393315930  DIIS 
           13        -0.345028398739    -150.971393885463  DIIS 
           14        -0.345029405142    -150.971394891865  DIIS 
           15        -0.345029808361    -150.971395295084  DIIS 
           16        -0.345029889645    -150.971395376368  DIIS 
           17        -0.345029825630    -150.971395312353  DIIS 
           18        -0.345029806087    -150.971395292810  DIIS 
           19        -0.345029792034    -150.971395278757  DIIS 
           20        -0.345029787692    -150.971395274415  DIIS 
           21        -0.345029788596    -150.971395275319  DIIS 
           22        -0.345029789590    -150.971395276313  DIIS 
           23        -0.345029790167    -150.971395276890  DIIS 
           24        -0.345029789980    -150.971395276703  DIIS 
           25        -0.345029789734    -150.971395276457  DIIS 
           26        -0.345029789653    -150.971395276377  DIIS 
      -----------------------------------------------------------
      A miracle has come to pass. The CC iterations have converged.
 @DIMT3-I, Dimensions of T3 amplitudes : 
               # abc          # ijk       Symmetry    Spin 
                      256              6     1          1
                      259              9     2          1
                      254             10     3          1
                      268             10     4          1
                      238              4     5          1
                      241              7     6          1
                      247              5     7          1
                      261              5     8          1
                      917             35     1          2
                      910             34     2          2
                      920             32     3          2
                      912             32     4          2
                      816             16     5          2
                      797             19     6          2
                      818             14     7          2
                      810             14     8          2
                      975             26     1          3
                      951             29     2          3
                      963             28     3          3
                      951             28     4          3
                      849             14     5          3
                      825             17     6          3
                      849             13     7          3
                      837             13     8          3
                      290              4     1          4
                      300              4     2          4
                      297              6     3          4
                      307              6     4          4
                      271              2     5          4
                      269              5     6          4
                      278              4     7          4
                      288              4     8          4
 @DIMT3-I, Dimensions of T3 amplitudes : 
               # abc          # ijk       Symmetry    Spin 
                      256              6     1          1
                      259              9     2          1
                      254             10     3          1
                      268             10     4          1
                      238              4     5          1
                      241              7     6          1
                      247              5     7          1
                      261              5     8          1
                      917             35     1          2
                      910             34     2          2
                      920             32     3          2
                      912             32     4          2
                      816             16     5          2
                      797             19     6          2
                      818             14     7          2
                      810             14     8          2
                      975             26     1          3
                      951             29     2          3
                      963             28     3          3
                      951             28     4          3
                      849             14     5          3
                      825             17     6          3
                      849             13     7          3
                      837             13     8          3
                      290              4     1          4
                      300              4     2          4
                      297              6     3          4
                      307              6     4          4
                      271              2     5          4
                      269              5     6          4
                      278              4     7          4
                      288              4     8          4
 @TRPS-I, Welcome to TRPS. Watch your RUs ! 
 @TRPS-I, Method is CCSD(T) 
 @TRPS-I, Calculation type is energy 
 @TRPS-I, Reference function information : 
          Reference function is general non-HF 
 @TRPS-I, Reference function is ROHF 
 @TRPS-I, INT1 is true 
 @TRPS-I, INT2 is false 
 @TRPS-I, Lengths of ijka integrals. #1        784
                                     #2        522
                                     #3       1382
                                     #4       1680
                                    Max       1680
 @INITRP-I, Initializing W intermediate lists. 
 @TSPABCI-I, AbIc/AbcI record transposition. 
 @TSPABCI-I, (O,v) ---> (v,O) transposition. 
 @TSPABCI-I, In-core algorithm is being used. 
 @TSPABCI-I, In-core algorithm is being used. 
 @TSPABCI-I, In-core algorithm is being used. 
 @TSPABCI-I, In-core algorithm is being used. 
 @TSPABCI-I, In-core algorithm is being used. 
 @TSPABCI-I, In-core algorithm is being used. 
 @TSPABCI-I, In-core algorithm is being used. 
 @TSPABCI-I, In-core algorithm is being used. 
 @TRPS-I, Available memory in integer words    499959040
          Number of pre-allocated words for TRPS14         5164
          Number of free words for TRPS14    499953876
 @TRPS14-I, Spin case AAA 
 @TRPS14-I, Number of free integer words  499953876
            Number of free double words   499953876
            Ratio                                 1
 @TRPS14-I, E4TAAA      -0.000432152420
 @TRPS14-I, E5ST A    0.000005581575055
 @TRPS14-I, E4ST A   -0.000003744289489
 @TRPS-I, Available memory in integer words    499959040
          Number of pre-allocated words for TRPS14         5157
          Number of free words for TRPS14    499953883
 @TRPS14-I, Spin case BBB 
 @TRPS14-I, Number of free integer words  499953883
            Number of free double words   499953883
            Ratio                                 1
 @TRPS14-I, E4TBBB      -0.000530085545
 @TRPS14-I, E5ST B    0.000107905906386
 @TRPS14-I, E4ST B    0.000003525167120
 @SETOOOV-I, Some OOOV lists are being transposed. 
 @TRPS-I, Available memory in integer words    499959040
          Number of pre-allocated words for TRPS2         3760
          Number of free words for TRPS2    499955280
 @TRPS2-I, Spin case AAB 
 @TRPS2-I, Number of free integer words  499955280
           Number of free double  words  499955280
           Ratio                                 1
 @TRPS2-I, E4TBAA      -0.011347553652
 @TRPS2-I, E5ST A    0.000123738563387
 @TRPS2-I, E5ST B    0.000661392603272
 @TRPS2-I, E4ST A    0.000038471093643
 @TRPS2-I, E4ST B   -0.000041643483879
 @SETOOOV-I, Some OOOV lists are being transposed. 
 @TSPABCI2-I, (Alpha,Beta) ---> (Beta,Alpha). 
 @TSPABCI2-I, In-core algorithm is being used. 
 @TSPABCI2-I, In-core algorithm is being used. 
 @TSPABCI2-I, In-core algorithm is being used. 
 @TSPABCI2-I, In-core algorithm is being used. 
 @TSPABCI2-I, In-core algorithm is being used. 
 @TSPABCI2-I, In-core algorithm is being used. 
 @TSPABCI2-I, In-core algorithm is being used. 
 @TSPABCI2-I, In-core algorithm is being used. 
 @TSPABCI2-I, In-core algorithm is being used. 
 @TSPABCI2-I, In-core algorithm is being used. 
 @TSPABCI2-I, In-core algorithm is being used. 
 @TSPABCI2-I, In-core algorithm is being used. 
 @TSPABCI2-I, In-core algorithm is being used. 
 @TSPABCI2-I, In-core algorithm is being used. 
 @TSPABCI2-I, In-core algorithm is being used. 
 @TSPABCI2-I, In-core algorithm is being used. 
 @AT2IAB-I, Some AbIj lists are being altered. 
 @TRPS-I, Available memory in integer words    499959040
          Number of pre-allocated words for TRPS3        23996
          Number of free words for TRPS3    499935044
 @TRPS3-I, Spin case BBA 
 @TRPS3-I, Number of free integer words  499935044
           Number of free double  words  499935044
           Ratio                                 1
 @TRPS3-I, E4TBBA      -0.010664191048
 @TRPS3-I, E5ST A    0.000178140920575
 @TRPS3-I, E5ST B    0.001476722214264
 @TRPS3-I, E4ST A    0.000034133084007
 @TRPS3-I, E4ST B   -0.000127431835330
 @TSPABCI2-I, (Beta,Alpha) ---> (Alpha,Beta). 
 @TSPABCI2-I, In-core algorithm is being used. 
 @TSPABCI2-I, In-core algorithm is being used. 
 @TSPABCI2-I, In-core algorithm is being used. 
 @TSPABCI2-I, In-core algorithm is being used. 
 @TSPABCI2-I, In-core algorithm is being used. 
 @TSPABCI2-I, In-core algorithm is being used. 
 @TSPABCI2-I, In-core algorithm is being used. 
 @TSPABCI2-I, In-core algorithm is being used. 
 @TSPABCI2-I, In-core algorithm is being used. 
 @TSPABCI2-I, In-core algorithm is being used. 
 @TSPABCI2-I, In-core algorithm is being used. 
 @TSPABCI2-I, In-core algorithm is being used. 
 @TSPABCI2-I, In-core algorithm is being used. 
 @TSPABCI2-I, In-core algorithm is being used. 
 @TSPABCI2-I, In-core algorithm is being used. 
 @TSPABCI2-I, In-core algorithm is being used. 
 @AT2IAB-I, Some AbIj lists are being altered. 
 @TSPABCI-I, AbIc/AbcI record transposition. 
 @TSPABCI-I, (v,O) ---> (O,v) transposition. 
 @TSPABCI-I, In-core algorithm is being used. 
 @TSPABCI-I, In-core algorithm is being used. 
 @TSPABCI-I, In-core algorithm is being used. 
 @TSPABCI-I, In-core algorithm is being used. 
 @TSPABCI-I, In-core algorithm is being used. 
 @TSPABCI-I, In-core algorithm is being used. 
 @TSPABCI-I, In-core algorithm is being used. 
 @TSPABCI-I, In-core algorithm is being used. 
 @CCENRG-I, CCSD/QCISD energy will now be evaluated. 
 @CCENRG-I, Correlation energies. ECCAA       -0.040350438486
                                  ECCBB       -0.037691377023
                                  ECCAB       -0.266987974144
                                  Total       -0.345029789653
 @CCENRG-I, Reference   energy    -150.626365486723
            CCSD/QCISD energy     -150.971395276377
          E4T (T(CCSD)) = -0.022973982664
          E5ST          =  0.001654863135
          E4ST          = -0.000093298751
          In other words  
          <T3[2](Dagger) D3  T3[2]> = -0.022973982664
          <T1   (Dagger) Q1 WT3[2]> =  0.001654863135
          <T2   (Dagger) Q2 FT3[2]> = -0.000093298751
        E(CCSD)           =    -150.971395276377
        E(CCSD(T))        =    -150.992807694658
  @CHECKOUT-I, Total execution time (CPU/WALL):        3.30/       0.92 seconds.
--executable xvcc finished with status     0 in        1.00 seconds (walltime).
  The final electronic energy is      -150.992807694657500 a.u. 
  This computation required                           80.54 seconds (walltime).
