 --invoking executable--
/home/nike/cfour_v2.00beta/cfour_v2.00beta/bin/xjoda


   *************************************************************************
         <<<     CCCCCC     CCCCCC   |||     CCCCCC     CCCCCC   >>>
       <<<      CCC        CCC       |||    CCC        CCC         >>>
      <<<      CCC        CCC        |||   CCC        CCC            >>>
    <<<        CCC        CCC        |||   CCC        CCC              >>>
      <<<      CCC        CCC        |||   CCC        CCC            >>>
       <<<      CCC        CCC       |||    CCC        CCC         >>>
         <<<     CCCCCC     CCCCCC   |||     CCCCCC     CCCCCC   >>>
   *************************************************************************

     ****************************************************************
     * CFOUR Coupled-Cluster techniques for Computational Chemistry *
     ****************************************************************
 

   Department of Chemistry                Institut fuer Physikalische Chemie
   University of Texas at Austin          Universitaet Mainz
   Austin, TX  78712, USA                 D-55099 Mainz, Germany
 
                       Version 2.00beta
 
                     blg8426.int.ets1.calculquebec.ca                  
                     Mo 24. Feb 21:05:50 EST 2020                      
                     integer*8 version is running
 
********************************************************************************
*                          Input from ZMAT file                                *
********************************************************************************
TITLE                                                                           
Cu                                                                              
Cu 1 R                                                                          
                                                                                
R=4.1938124966                                                                  
                                                                                
*ACES2(CALC=CCSD(T)                                                             
UNITS=BOHR                                                                      
#GEOM=2.21927*10/5.29177210903_corinne'sThesis                                  
#COORD=CARTESIAN                                                                
COORD=INTERNAL                                                                  
PRINT=4                                                                         
JODA_PRINT=4                                                                    
INPUT_MRCC=OFF                                                                  
#CC_PROG=MRCC                                                                   
FROZEN_CORE=ON                                                                  
#DROPMO=1>5                                                                     
CONTRACTION=GENERAL                                                             
#CONTRACTION=SEGMENTED                                                          
RELATIVISTIC=OFF                                                                
#EXCITE=EOMEE                                                                   
#ESTATE_CONV=5                                                                  
#ESTATE_SYM=2/2/2/2/2/2/2/2                                                     
XFORM_TOL=18                                                                    
SAVE_INTS=ON                                                                    
SCF_EXPORDER=6                                                                  
SCF_EXPSTART=5                                                                  
#SCF_DAMPING=1000                                                               
SCF_EXTRAPOLATION=ON                                                            
SCF_CONV=12                                                                     
SCF_MAXCYC=99999                                                                
CC_CONV=9                                                                       
CC_MAXCYC=999                                                                   
T3_EXTRAPOL=ON                                                                  
REFERENCE=RHF                                                                   
CHARGE=+0                                                                       
MULT=1                                                                          
ABCDTYPE=STANDARD                                                               
#OCCUPATION=3-2-2-0-1-0-0-0/3-1-1-0-1-0-0-0                                     
MEM=12                                                                          
MEM_UNIT=GB                                                                     
BASIS=SPECIAL)                                                                  
                                                                                
CU:def2-TZVPP                                                                   
CU:def2-TZVPP                                                                   
                                                                                
********************************************************************************
  @GTFLGS-W, Keyword #GEOM not known and is ignored.
  @GTFLGS-W, Keyword #COORD not known and is ignored.
  @GTFLGS-W, Keyword #CC_PROG not known and is ignored.
  @GTFLGS-W, Keyword #DROPMO not known and is ignored.
  @GTFLGS-W, Keyword #CONTRACTION not known and is ignored.
  @GTFLGS-W, Keyword #EXCITE not known and is ignored.
  @GTFLGS-W, Keyword #ESTATE_CONV not known and is ignored.
  @GTFLGS-W, Keyword #ESTATE_SYM not known and is ignored.
  @GTFLGS-W, Keyword #SCF_DAMPING not known and is ignored.
  @GTFLGS-W, Keyword #OCCUPATION not known and is ignored.
    -------------------------------------------------------------------
                    CFOUR Control Parameters 
    -------------------------------------------------------------------
        External           Internal           Value            Units
          Name               Name
    -------------------------------------------------------------------
       ABCDTYPE             IABCDT         STANDARD     [  0]   ***   
       ANHARMONIC           IANHAR         OFF          [  0]   ***   
       ANH_ALGORIT          IANALG         STANDARD     [  0]   ***   
       ANH_DERIVAT          IANDER         SECOND       [  1]   ***   
       ANH_STEPSIZ          ICUBST             50000          x 10-6  
       ANH_SYMMETR          IANHSM         ABELIAN      [  0]   ***   
       AO_LADDERS           IAOLAD         SINGLEPASS   [  1]   ***   
       BASIS                IBASIS         SPECIAL      [  0]   ***   
       BREIT                IBREIT         OFF          [  0]   ***   
       BRUCK_CONV           IBRTOL          10D-  4             ***   
       BRUECKNER            IBRKNR             OFF      [  0]   ***   
       BUFFERSIZE           IBUFFS            600               ***   
       CACHE_RECS           ICHREC             10               ***   
       CALCLEVEL            ICLLVL           CCSD(T)    [ 22]   ***   
       CCORBOPT             ICCORB             OFF      [  0] x 0.01  
       CC_CONV              ICCCNV          10D-  9             ***   
       CC_EXPORDER          ICCEOR              5               ***   
       CC_EXTRAPOL          ICCEXT             DIIS     [  1]   ***   
       CC_MAXCYC            ICCCYC            999              cycles 
       CC_PROGRAM           ICCPRO         VCC          [  0]   ***   
       CHARGE               ICHRGE              0               ***   
       CHOLESKY             ICHOLE         OFF          [  0]   ***   
       CIS_CONV             ICISTL              5               ***   
       COMM_SIZE            IPSIZE            ***               ***   
       CONSTANT             ICONST         OLD          [  1]   ***   
       CONTINUUM            ICONTU         NONE         [  0]   ***   
       CONTRACTION          ICNTYP          GENERAL     [  1]   ***   
       COORDINATES          ICOORD         INTERNAL     [  0]   ***   
       CPHF_CONVER          ICPHFT          10D- 16             ***   
       CPHF_MAXCYC          ICPHFC             64              cycles 
       CUBIC                ICUBIC         OFF          [  0]   ***   
       CURVILINEAR          ICURVY            OFF       [  0]   ***   
       DBOC                 IDBOC          OFF          [  0]   ***   
       DCT                  IDCT           OFF          [  0]   ***   
       DERIV_LEV            IDRLVL            ZERO      [  0]   ***   
       DIAG_MRCC            IEOMST          10D-  0             ***   
       DIFF_TYPE            IDIFTY         RELAXED      [  0]   ***   
       DIRECT               IDIRCT         OFF          [  0]   ***   
       DROPMO               IDRPMO      NONE         
       ECP                  IECP           OFF          [  0]   ***   
       EIGENVECTOR          IVEC                1               ***   
       EL_ANHARM            IELANH         OFF          [  0]   ***   
       EOMFOLLOW            IEOMSR         ENERGY       [  0]   ***   
       EOM_MRCC             IMRCCE         NEW          [  1]   ***   
       EOM_NONIT            EOMNON         OFF          [  0]   ***   
       EOM_NSING            IEOMSI          10D-  0             ***   
       EOM_NSTATES          IMRCCD         DAVIDSON     [  0]   ***   
       EOM_NTRIP            IEOMTR          10D-  0             ***   
       EOM_ORDER            IEXORD         ENERGY       [  0]   ***   
       ESTATE_CONV          IEXTOL          10D-  5             ***   
       ESTATE_DIAG          IEXDIG         ITERATIVE    [  0]   ***   
       ESTATE_LOCK          IESLOC         ON           [  1]   ***   
       ESTATE_MAXC          IEXMXC             20               ***   
       ESTATE_PROP          IEXPRP         OFF          [  0]   ***   
       EVAL_HESS            IRECAL              0            # of cyc.
       EXCITATION           IEXCIT              0               ***   
       EXCITE               IEXCIT         NONE         [  0]   ***   
       FCGRADNEW            IFCGNW         OFF          [  0]   ***   
       FC_FIELD             IFINFC              0             x 10-6  
       FD_CALTYPE           IFDCAL         GRADONLY     [  0]   ***   
       FD_PROJECT           IFDPRJ         OFF          [  1]   ***   
       FD_STEPSIZE          IDISFD              0            10-4 bohr
       FD_USEGROUP          IFDGRP         FULL         [  0]   ***   
       FILE_RECSIZ          IFLREC              4096           words  
       FINITE_PERT          IFIPER              0             x 10-6  
       FIXGEOM              IFIXGM         OFF          [  0]   ***   
       FOCK                 IFOCK          AO           [  1]   ***   
       FREQ_ALGORI          IVIALG         STANDARD     [  0]   ***   
       FROZEN_CORE          IFROCO         ON           [  1]   ***   
       FROZEN_VIRT          IFROVI         OFF          [  0]   ***   
       GAMMA_ABCD           IGABCD         STORE        [  0]   ***   
       GAMMA_ABCI           IGABCI         STORE        [  0]   ***   
       GENBAS_1             IGNBS1              0               ***   
       GENBAS_2             IGNBS2              0               ***   
       GENBAS_3             IGNBS3              0               ***   
       GENBAS_4             IGNBS4              0               ***   
       GEO_CONV             ICONTL              5              H/bohr 
       GEO_MAXCYC           IOPTCY             50               ***   
       GEO_MAXSTEP          IMXSTP            300            millibohr
       GEO_METHOD           INR            SINGLE_POINT [  5]   ***   
       GIAO                 IGIAO          OFF          [  1]   ***   
       GIMIC                IGIMIC         OFF          [  0]   ***   
       GRID                 IGRID          OFF          [  0]   ***   
       GRID_ALGO            IGALGO         SERIAL       [  0]   ***   
       GUESS                IGUESS            MOREAD    [  0]   ***   
       HBAR                 IHBAR              OFF      [  0]   ***   
       HESS_TYPE            IHESTP         SCF          [  0]   ***   
       HF2_FILE             IHF2Fl         USE          [  1]   ***   
       HFSTABILITY          ISTABL         OFF          [  0]   ***   
       INCORE               INCORE             OFF      [  0]   ***   
       INPUT_MRCC           IMRCC          OFF          [  0]   ***   
       INTEGRALS            INTTYP             VMOL     [  1]   ***   
       JODA_PRINT           IJPRNT              4               ***   
       LINDEP_TOL           ILINDP              8               ***   
       LINEQ_CONV           IZTACN          10D-  7           cycles  
       LINEQ_EXPOR          ILMAXD              5               ***   
       LINEQ_MAXCY          ILMAXC             50               ***   
       LINEQ_TYPE           ILTYPE         DIIS         [  1]   ***   
       LOCK_ORBOCC          ILOCOC             OFF      [  0]   ***   
       MEMORY_SIZE          IMEMSZ         *********           words  
       MEM_UNIT             IMEMU          GB           [  3]   ***   
       MRCC                 IMRCCC         OFF          [  0]   ***   
       MULTIPLICTY          IMULTP              1               ***   
       NEGEVAL              IDIE             ABORT      [  0]   ***   
       NEWNORM              INEWNO         OFF          [  0]   ***   
       NON-HF               INONHF             OFF      [  0]   ***   
       NTOP_TAMP            ITOPT2             15               ***   
       NUC_MODEL            INUCMO         POINT        [  0]   ***   
       OCCUPATION           IOCCU   ESTIMATED BY SCF 
       OPEN-SHELL           IOPEN          SPIN-ORBITAL [  0]   ***   
       ORBITALS             IORBTP           STANDARD   [  0]   ***   
       PARALLEL             IPARAL         ON           [  1]   ***   
       PARA_INT             IPINTS         ON           [  1]   ***   
       PARA_PRINT           IPPRIN              0               ***   
       PERT_ORB             IPTORB         STANDARD     [  0]   ***   
       POINTS               IGRDFD              0               ***   
       PRINT                IPRNT               4               ***   
       PROPS                IPROPS             OFF      [  0]   ***   
       PROP_INTEGR          IINTYP         INTERNAL     [  0]   ***   
       PSI                  IPSI           OFF          [  0]   ***   
       QUARTIC              IQUART         OFF          [  0]   ***   
       RAMAN_INT            IRAMIN         OFF          [  0]   ***   
       RAMAN_ORB            IRAMRE         UNRELAXED    [  0]   ***   
       RDO                  IRDOFM             OFF      [  0]   ***   
       REFERENCE            IREFNC             RHF      [  0]   ***   
       RELATIVIST           IRELAT         OFF          [  0]   ***   
       RELAX_DENS           IRDENS             OFF      [  0]   ***   
       RESET_FLAGS          IRESET             OFF      [  0]   ***   
       RESTART_CC           ICCRES         OFF          [  0]   ***   
       ROT_EVEC             ROTVEC              0               ***   
       SAVE_INTS            ISVINT              ON      [  1]   ***   
       SCALE_ON             ISTCRT              0               ***   
       SCF_CONV             ISCFCV          10D- 12             ***   
       SCF_DAMPING          IDAMP               0             x 10-3  
       SCF_EXPORDE          IRPPOR              6               ***   
       SCF_EXPSTAR          IRPPLS              5               ***   
       SCF_EXTRAPO          IRPP                ON      [  1]   ***   
       SCF_MAXCYC           ISCFCY            ***              cycles 
       SCF_NOSTOP           ISCFST         OFF          [  0]   ***   
       SCF_PRINT            ISCFPR              0               ***   
       SD_FIELD             IFINSD              0             x 10-6  
       SEQUENCE             ISEQUE         OFF          [  0]   ***   
       SOPERT               IPERSO         OFF          [  0]   ***   
       SPHERICAL            IDFGHI             ON       [  1]   ***   
       SPINORBIT            ISOCAL         OFF          [  0]   ***   
       SPINROTATIO          ISRCON         OFF          [  0]   ***   
       SPIN_FLIP            ISPFLP         OFF          [  0]   ***   
       SPIN_ORBIT           ISPORB         OFF          [  0]   ***   
       SPIN_SCAL            ISCSMP         OFF          [  0]   ***   
       SUBGROUP             ISUBGP         DEFAULT      [  0]   ***   
       SUBGRPAXIS           ISBXYZ         X            [  0]   ***   
       SYMMETRY             ISYM             ON         [  0]   ***   
       SYM_CHECK            ISYMCK         OVERRIDE     [  1]   ***   
       T3_EXTRAPOL          IT3EXT         ON           [  1]   ***   
       TAMP_SUM             IEVERY              5               ***   
       TESTSUITE            ITESTS         OFF          [  0]   ***   
       THERMOCH             ITHERM         OFF          [  0]   ***   
       TOL_CHOLESK          ITOLCH          10D-  4             ***   
       TRANGRAD             IRESRM         OFF          [  0]   ***   
       TRANS_INV            ITRAIN         USE          [  0]   ***   
       TREAT_PERT           ITREAT         SIMULTANEOUS [  0]   ***   
       UIJ_THRESHO          IUIJTH              1               ***   
       UNITS                IUNITS         BOHR         [  1]   ***   
       UNOS                 IUNOS          OFF          [  0]   ***   
       UPDATE_HESS          IHUPDT         ON           [  1]   ***   
       VIBPHASE             ISETPH         STANDARD     [  0]   ***   
       VIBRATION            IVIB              NO        [  0]   ***   
       VIB_ALGORIT          IGEALG         STANDARD     [  0]   ***   
       VNATORB              IVNORB         OFF          [  0]   ***   
       VTRAN                IVTRAN         FULL/PARTIAL [  0]   ***   
       XFIELD               IXEFLD              0             x 10-6  
       XFORM_TOL            IXFTOL          10D- 18             ***   
       YFIELD               IYEFLD              0             x 10-6  
       ZFIELD               IZEFLD              0             x 10-6  
    -------------------------------------------------------------------
   2 entries found in Z-matrix 
   Job Title : TITLE                                                                           
 Variable names read by FETCHZ
  1           
  2           
  3           
  4 R         
  5           
  6           
 Atomic symbols read by FETCHZ
  1 Cu   
  2 Cu   
 Connectivity matrix read by FETCHZ
  1   0
  2   0
  3   0
  4   1
  5   0
  6   0
   There are  1 unique internal coordinates.
   Of these,  0 will be optimized.
   User supplied Z-matrix: 
--------------------------------------------------------------------------------
       SYMBOL    BOND      LENGTH    ANGLE     ANGLE     DIHED     ANGLE
                  TO      (ANGST)    WRT      (DEG)      WRT      (DEG)
--------------------------------------------------------------------------------
        Cu   
        Cu         1         R    
                  *Initial values for internal coordinates* 
                      Name             Value
                        R               4.1938124966
--------------------------------------------------------------------------------
  1  CU        29    62.92960
  2  CU        29    62.92960
   62.9295989000
   62.9295989000
 After translation to center of mass coordinates 
        0.000000000000    0.000000000000   -2.096906248300
        0.000000000000    0.000000000000    2.096906248300
  Inertia tensor (amu*bohr**2)
  553.40488    0.00000    0.00000
    0.00000  553.40488    0.00000
    0.00000    0.00000    0.00000
    Inertia tensor:
      553.404883084039    0.000000000000    0.000000000000
        0.000000000000  553.404883084039    0.000000000000
        0.000000000000    0.000000000000    0.000000000000
    Principal axis orientation for molecular system: 
       -0.000000000000    0.000000000000    2.096906248300
        0.000000000000    0.000000000000   -2.096906248300
    Diagonalized inertia tensor:
      553.404883084039    0.000000000000    0.000000000000
        0.000000000000  553.404883084039    0.000000000000
        0.000000000000    0.000000000000    0.000000000000
    Eigenvectors of inertia tensor: 
        1.000000000000    0.000000000000    0.000000000000
        0.000000000000    1.000000000000    0.000000000000
        0.000000000000    0.000000000000   -1.000000000000
 factor:   60.1997200000000     
   Rotational constants (in cm-1): 
          0.1087806086             0.1087806086
   Rotational constants (in MHz): 
       3261.1610612332          3261.1610612332
  @SYMMETRY-I, Handedness of inertial frame:-1.00000
  @SYMMETRY-I, Sense of inertial frame y-axis will be changed.
  @SYMMETRY-I, The symmetry group is 2-fold degenerate.
  @SYMMETRY-I, The molecule belongs to a point group with doubly degenerate representations.
  @SYMMETRY-I, The molecule is linear.
   Principal axis orientation for molecule:
       -0.000000000000    0.000000000000    2.096906248300
        0.000000000000    0.000000000000   -2.096906248300
   Reflection in plane  3 is a valid symmetry operation.
   Rotation about  3 is a valid symmetry operation 
   Reflection in plane  2 is a valid symmetry operation.
   Rotation about  2 is a valid symmetry operation 
   Reflection in plane  1 is a valid symmetry operation.
   Rotation about  1 is a valid symmetry operation 
   The molecule possesses an inversion center. 
  Symmetry bits:    7   7   1
********************************************************************************
   The full molecular point group is DXh .
   The largest Abelian subgroup of the full molecular point group is D2h .
   The computational point group is D2h .
********************************************************************************
--------------------------------------------------------------------------------
   Analysis of internal coordinates specified by Z-matrix 
--------------------------------------------------------------------------------
   *The nuclear repulsion energy is  200.533524253126245 a.u.
   *There is   1 degree of freedom within the tot. symm. molecular subspace.
   *Z-matrix requests optimization of   0 coordinates.
   *The optimization is constrained.
   *The following   1 parameters can have non-zero 
    derivatives within the totally symmetric subspace:
             R    [ 1]
   *The following   0 parameters are to be optimized:

   *The following coordinates must be varied in an  unconstrained optimization.
             R    [ 1]
--------------------------------------------------------------------------------
 ----------------------------------------------------------------
 Z-matrix   Atomic            Coordinates (in bohr)
  Symbol    Number           X              Y              Z
 ----------------------------------------------------------------
     CU       29        -0.00000000     0.00000000     2.09690625
     CU       29         0.00000000     0.00000000    -2.09690625
 ----------------------------------------------------------------
   Interatomic distance matrix (Angstroms) 
 
                 CU            CU   
                [ 1]        [ 2]
  CU   [ 1]     0.00000
  CU   [ 2]     2.21927     0.00000
  Inertia tensor (amu*bohr**2)
  553.40488    0.00000    0.00000
    0.00000  553.40488    0.00000
    0.00000    0.00000    0.00000
   Rotational constants (in cm-1): 
          0.1087806086             0.0000000000
   Rotational constants (in MHz): 
       3261.1610612332             0.0000000000
  @GTFLGS-W, Keyword #GEOM not known and is ignored.
  @GTFLGS-W, Keyword #COORD not known and is ignored.
  @GTFLGS-W, Keyword #CC_PROG not known and is ignored.
  @GTFLGS-W, Keyword #DROPMO not known and is ignored.
  @GTFLGS-W, Keyword #CONTRACTION not known and is ignored.
  @GTFLGS-W, Keyword #EXCITE not known and is ignored.
  @GTFLGS-W, Keyword #ESTATE_CONV not known and is ignored.
  @GTFLGS-W, Keyword #ESTATE_SYM not known and is ignored.
  @GTFLGS-W, Keyword #SCF_DAMPING not known and is ignored.
  @GTFLGS-W, Keyword #OCCUPATION not known and is ignored.
  There are  18 frozen-core orbitals.
  There are  128 basis functions.
 @GEOPT-W, Archive file not created for single-point calculation.
  @CHECKOUT-I, Total execution time (CPU/WALL):        0.41/       2.76 seconds.
--executable xjoda finished with status     0 in        4.73 seconds (walltime).
 --invoking executable--
/home/nike/cfour_v2.00beta/cfour_v2.00beta/bin/xvmol
 Serial version of molecule started
********************************************************************************
                    Input from MOL file
********************************************************************************
INTGRL        1    0    1    0    0    0    0    0    0                         
         *** CFOUR Program System (Release V0.1) ***                            
TITLE                                                                           
    1    3 X  Y   Z   0.10E-08              0    0                              
   9999.00      3.00                                                            
         29.00000000    1    5    1    1    1    1    1                         
CU#1  -0.000000000000000   0.000000000000000   2.096906248300000                
   17    6                                                                      
   377518.799230000       2.281176612800000E-004  0.000000000000000E+000        
  0.000000000000000E+000  0.000000000000000E+000  0.000000000000000E+000        
  0.000000000000000E+000                                                        
   56589.9843110000       1.768803593100000E-003  0.000000000000000E+000        
  0.000000000000000E+000  0.000000000000000E+000  0.000000000000000E+000        
  0.000000000000000E+000                                                        
   12878.7117060000       9.199346022700000E-003  0.000000000000000E+000        
  0.000000000000000E+000  0.000000000000000E+000  0.000000000000000E+000        
  0.000000000000000E+000                                                        
   3645.37521430000       3.741101643400000E-002  0.000000000000000E+000        
  0.000000000000000E+000  0.000000000000000E+000  0.000000000000000E+000        
  0.000000000000000E+000                                                        
   1187.00729450000       0.121898737370000       0.000000000000000E+000        
  0.000000000000000E+000  0.000000000000000E+000  0.000000000000000E+000        
  0.000000000000000E+000                                                        
   426.464219020000       0.289839007140000       0.000000000000000E+000        
  0.000000000000000E+000  0.000000000000000E+000  0.000000000000000E+000        
  0.000000000000000E+000                                                        
   165.706601640000       0.415318721740000       0.000000000000000E+000        
  0.000000000000000E+000  0.000000000000000E+000  0.000000000000000E+000        
  0.000000000000000E+000                                                        
   65.5989427070000       0.219057992870000       0.000000000000000E+000        
  0.000000000000000E+000  0.000000000000000E+000  0.000000000000000E+000        
  0.000000000000000E+000                                                        
   414.412658110000       0.000000000000000E+000 -2.468252505300000E-002        
  0.000000000000000E+000  0.000000000000000E+000  0.000000000000000E+000        
  0.000000000000000E+000                                                        
   128.320560390000       0.000000000000000E+000 -0.117168274060000             
  0.000000000000000E+000  0.000000000000000E+000  0.000000000000000E+000        
  0.000000000000000E+000                                                        
   20.6220897500000       0.000000000000000E+000  0.553013159410000             
  0.000000000000000E+000  0.000000000000000E+000  0.000000000000000E+000        
  0.000000000000000E+000                                                        
   8.78212260450000       0.000000000000000E+000  0.522427186090000             
  0.000000000000000E+000  0.000000000000000E+000  0.000000000000000E+000        
  0.000000000000000E+000                                                        
   13.7413720060000       0.000000000000000E+000  0.000000000000000E+000        
 -0.227360618210000       0.000000000000000E+000  0.000000000000000E+000        
  0.000000000000000E+000                                                        
   2.24312468330000       0.000000000000000E+000  0.000000000000000E+000        
  0.717612108730000       0.000000000000000E+000  0.000000000000000E+000        
  0.000000000000000E+000                                                        
  0.893705490790000       0.000000000000000E+000  0.000000000000000E+000        
  0.000000000000000E+000   1.00000000000000       0.000000000000000E+000        
  0.000000000000000E+000                                                        
  0.108366995340000       0.000000000000000E+000  0.000000000000000E+000        
  0.000000000000000E+000  0.000000000000000E+000   1.00000000000000             
  0.000000000000000E+000                                                        
  3.880617805800000E-002  0.000000000000000E+000  0.000000000000000E+000        
  0.000000000000000E+000  0.000000000000000E+000  0.000000000000000E+000        
   1.00000000000000                                                             
   12    5                                                                      
   2034.75966920000       2.352482229800000E-003  0.000000000000000E+000        
  0.000000000000000E+000  0.000000000000000E+000  0.000000000000000E+000        
   481.904681060000       1.913407075100000E-002  0.000000000000000E+000        
  0.000000000000000E+000  0.000000000000000E+000  0.000000000000000E+000        
   154.674829630000       9.017110527800000E-002  0.000000000000000E+000        
  0.000000000000000E+000  0.000000000000000E+000  0.000000000000000E+000        
   57.7405769690000       0.260632847350000       0.000000000000000E+000        
  0.000000000000000E+000  0.000000000000000E+000  0.000000000000000E+000        
   23.0990528110000       0.420934857700000       0.000000000000000E+000        
  0.000000000000000E+000  0.000000000000000E+000  0.000000000000000E+000        
   9.38824785910000       0.243446151210000       0.000000000000000E+000        
  0.000000000000000E+000  0.000000000000000E+000  0.000000000000000E+000        
   37.5961712100000       0.000000000000000E+000 -2.899109453000000E-002        
  0.000000000000000E+000  0.000000000000000E+000  0.000000000000000E+000        
   5.12406908100000       0.000000000000000E+000  0.549190838310000             
  0.000000000000000E+000  0.000000000000000E+000  0.000000000000000E+000        
   2.01199960850000       0.000000000000000E+000  0.937933304880000             
  0.000000000000000E+000  0.000000000000000E+000  0.000000000000000E+000        
  0.738606860020000       0.000000000000000E+000  0.000000000000000E+000        
   1.00000000000000       0.000000000000000E+000  0.000000000000000E+000        
  0.271100000000000       0.000000000000000E+000  0.000000000000000E+000        
  0.000000000000000E+000   1.00000000000000       0.000000000000000E+000        
  9.954000000000000E-002  0.000000000000000E+000  0.000000000000000E+000        
  0.000000000000000E+000  0.000000000000000E+000   1.00000000000000             
    7    4                                                                      
   74.1294606370000       1.436321667600000E-002  0.000000000000000E+000        
  0.000000000000000E+000  0.000000000000000E+000                                
   21.3598425870000       8.662817709600000E-002  0.000000000000000E+000        
  0.000000000000000E+000  0.000000000000000E+000                                
   7.49952405370000       0.256314305410000       0.000000000000000E+000        
  0.000000000000000E+000  0.000000000000000E+000                                
   2.76013941690000       0.403740623680000       0.000000000000000E+000        
  0.000000000000000E+000  0.000000000000000E+000                                
  0.953620612360000       0.000000000000000E+000  0.394270424470000             
  0.000000000000000E+000  0.000000000000000E+000                                
  0.284208625200000       0.000000000000000E+000  0.000000000000000E+000        
  0.230911468160000       0.000000000000000E+000                                
  8.500000000000001E-002  0.000000000000000E+000  0.000000000000000E+000        
  0.000000000000000E+000   1.00000000000000                                     
    2    2                                                                      
   1.20900000000000        1.00000000000000       0.000000000000000E+000        
   4.93600000000000       0.000000000000000E+000   1.00000000000000             
    1    1                                                                      
   3.24500000000000        1.00000000000000                                     
FINISH                                                                          
 
********************************************************************************
 One- and two-electron integrals over symmetry-adapted AOs are calculated.

  Spherical harmonics are used.
  
   1 types of atoms
   3 symmetry operations

   Reflection in the YZ-plane
   Reflection in the XZ-plane
   Reflection in the XY-plane
  
  Integrals less than  0.10E-13 are neglected.

  Atomic type number  1 :
  -----------------------

    Nuclear charge:                       29
    number of symmetry independent atoms:  1
    highest orbital type:                  g

      1 groups of CGTOs of s type
      1 groups of CGTOs of p type
      1 groups of CGTOs of d type
      1 groups of CGTOs of f type
      1 groups of CGTOs of g type

    nuclear coordinates (in a.u.) are :

    CU#1        0.000000000000000        0.000000000000000        2.096906248300000
  
   Basis function not normalized: 
   Center (as ordered in MOL file):   1
   Angular Momentum type          : s
   Offset within angular momentum :  1
   <chi|chi>                      :    1.0467910681
   Basis function not normalized: 
   Center (as ordered in MOL file):   1
   Angular Momentum type          : s
   Offset within angular momentum :  2
   <chi|chi>                      :    1.0123215676
   Basis function not normalized: 
   Center (as ordered in MOL file):   1
   Angular Momentum type          : s
   Offset within angular momentum :  3
   <chi|chi>                      :    1.6270750234
   Basis function not normalized: 
   Center (as ordered in MOL file):   1
   Angular Momentum type          : p
   Offset within angular momentum :  1
   <chi|chi>                      :    1.1382099419
   Basis function not normalized: 
   Center (as ordered in MOL file):   1
   Angular Momentum type          : p
   Offset within angular momentum :  2
   <chi|chi>                      :    0.7150523603
   Basis function not normalized: 
   Center (as ordered in MOL file):   1
   Angular Momentum type          : d
   Offset within angular momentum :  1
   <chi|chi>                      :    1.5474147473
   Basis function not normalized: 
   Center (as ordered in MOL file):   1
   Angular Momentum type          : d
   Offset within angular momentum :  2
   <chi|chi>                      :    2.5363302392
   Basis function not normalized: 
   Center (as ordered in MOL file):   1
   Angular Momentum type          : d
   Offset within angular momentum :  3
   <chi|chi>                      :    4.3306640764
   Internuclear distances (A) :

     for atom CU#1 (coordinates :   0.00000   0.00000   2.09691)

     CU#1   5     distance is  2.219

   Group multiplication table :

         1   2   3   4   5   6   7   8
         2   1   4   3   6   5   8   7
         3   4   1   2   7   8   5   6
         4   3   2   1   8   7   6   5
         5   6   7   8   1   2   3   4
         6   5   8   7   2   1   4   3
         7   8   5   6   3   4   1   2
         8   7   6   5   4   3   2   1

   Gaussian basis information :

   atom                 exponent      coefficients

 CU#1  1    S   
+                 1  377518.799230   0.0002281   0.0000000   0.0000000   0.0000000   0.0000000   0.0000000
                  2   56589.984311   0.0017688   0.0000000   0.0000000   0.0000000   0.0000000   0.0000000
                  3   12878.711706   0.0091993   0.0000000   0.0000000   0.0000000   0.0000000   0.0000000
                  4    3645.375214   0.0374110   0.0000000   0.0000000   0.0000000   0.0000000   0.0000000
                  5    1187.007294   0.1218987   0.0000000   0.0000000   0.0000000   0.0000000   0.0000000
                  6     426.464219   0.2898390   0.0000000   0.0000000   0.0000000   0.0000000   0.0000000
                  7     165.706602   0.4153187   0.0000000   0.0000000   0.0000000   0.0000000   0.0000000
                  8      65.598943   0.2190580   0.0000000   0.0000000   0.0000000   0.0000000   0.0000000
                  9     414.412658   0.0000000  -0.0246825   0.0000000   0.0000000   0.0000000   0.0000000
                 10     128.320560   0.0000000  -0.1171683   0.0000000   0.0000000   0.0000000   0.0000000
                 11      20.622090   0.0000000   0.5530132   0.0000000   0.0000000   0.0000000   0.0000000
                 12       8.782123   0.0000000   0.5224272   0.0000000   0.0000000   0.0000000   0.0000000
                 13      13.741372   0.0000000   0.0000000  -0.2273606   0.0000000   0.0000000   0.0000000
                 14       2.243125   0.0000000   0.0000000   0.7176121   0.0000000   0.0000000   0.0000000
                 15       0.893705   0.0000000   0.0000000   0.0000000   1.0000000   0.0000000   0.0000000
                 16       0.108367   0.0000000   0.0000000   0.0000000   0.0000000   1.0000000   0.0000000
                 17       0.038806   0.0000000   0.0000000   0.0000000   0.0000000   0.0000000   1.0000000

 CU#1  5    S   
+                18  377518.799230   0.0002281   0.0000000   0.0000000   0.0000000   0.0000000   0.0000000
                 19   56589.984311   0.0017688   0.0000000   0.0000000   0.0000000   0.0000000   0.0000000
                 20   12878.711706   0.0091993   0.0000000   0.0000000   0.0000000   0.0000000   0.0000000
                 21    3645.375214   0.0374110   0.0000000   0.0000000   0.0000000   0.0000000   0.0000000
                 22    1187.007294   0.1218987   0.0000000   0.0000000   0.0000000   0.0000000   0.0000000
                 23     426.464219   0.2898390   0.0000000   0.0000000   0.0000000   0.0000000   0.0000000
                 24     165.706602   0.4153187   0.0000000   0.0000000   0.0000000   0.0000000   0.0000000
                 25      65.598943   0.2190580   0.0000000   0.0000000   0.0000000   0.0000000   0.0000000
                 26     414.412658   0.0000000  -0.0246825   0.0000000   0.0000000   0.0000000   0.0000000
                 27     128.320560   0.0000000  -0.1171683   0.0000000   0.0000000   0.0000000   0.0000000
                 28      20.622090   0.0000000   0.5530132   0.0000000   0.0000000   0.0000000   0.0000000
                 29       8.782123   0.0000000   0.5224272   0.0000000   0.0000000   0.0000000   0.0000000
                 30      13.741372   0.0000000   0.0000000  -0.2273606   0.0000000   0.0000000   0.0000000
                 31       2.243125   0.0000000   0.0000000   0.7176121   0.0000000   0.0000000   0.0000000
                 32       0.893705   0.0000000   0.0000000   0.0000000   1.0000000   0.0000000   0.0000000
                 33       0.108367   0.0000000   0.0000000   0.0000000   0.0000000   1.0000000   0.0000000
                 34       0.038806   0.0000000   0.0000000   0.0000000   0.0000000   0.0000000   1.0000000

 CU#1  1    X   
+                35    2034.759669   0.0023525   0.0000000   0.0000000   0.0000000   0.0000000
                 36     481.904681   0.0191341   0.0000000   0.0000000   0.0000000   0.0000000
                 37     154.674830   0.0901711   0.0000000   0.0000000   0.0000000   0.0000000
                 38      57.740577   0.2606328   0.0000000   0.0000000   0.0000000   0.0000000
                 39      23.099053   0.4209349   0.0000000   0.0000000   0.0000000   0.0000000
                 40       9.388248   0.2434462   0.0000000   0.0000000   0.0000000   0.0000000
                 41      37.596171   0.0000000  -0.0289911   0.0000000   0.0000000   0.0000000
                 42       5.124069   0.0000000   0.5491908   0.0000000   0.0000000   0.0000000
                 43       2.012000   0.0000000   0.9379333   0.0000000   0.0000000   0.0000000
                 44       0.738607   0.0000000   0.0000000   1.0000000   0.0000000   0.0000000
                 45       0.271100   0.0000000   0.0000000   0.0000000   1.0000000   0.0000000
                 46       0.099540   0.0000000   0.0000000   0.0000000   0.0000000   1.0000000

 CU#1  5    X   
+                47    2034.759669   0.0023525   0.0000000   0.0000000   0.0000000   0.0000000
                 48     481.904681   0.0191341   0.0000000   0.0000000   0.0000000   0.0000000
                 49     154.674830   0.0901711   0.0000000   0.0000000   0.0000000   0.0000000
                 50      57.740577   0.2606328   0.0000000   0.0000000   0.0000000   0.0000000
                 51      23.099053   0.4209349   0.0000000   0.0000000   0.0000000   0.0000000
                 52       9.388248   0.2434462   0.0000000   0.0000000   0.0000000   0.0000000
                 53      37.596171   0.0000000  -0.0289911   0.0000000   0.0000000   0.0000000
                 54       5.124069   0.0000000   0.5491908   0.0000000   0.0000000   0.0000000
                 55       2.012000   0.0000000   0.9379333   0.0000000   0.0000000   0.0000000
                 56       0.738607   0.0000000   0.0000000   1.0000000   0.0000000   0.0000000
                 57       0.271100   0.0000000   0.0000000   0.0000000   1.0000000   0.0000000
                 58       0.099540   0.0000000   0.0000000   0.0000000   0.0000000   1.0000000

 CU#1  1    Y   
+                59    2034.759669   0.0023525   0.0000000   0.0000000   0.0000000   0.0000000
                 60     481.904681   0.0191341   0.0000000   0.0000000   0.0000000   0.0000000
                 61     154.674830   0.0901711   0.0000000   0.0000000   0.0000000   0.0000000
                 62      57.740577   0.2606328   0.0000000   0.0000000   0.0000000   0.0000000
                 63      23.099053   0.4209349   0.0000000   0.0000000   0.0000000   0.0000000
                 64       9.388248   0.2434462   0.0000000   0.0000000   0.0000000   0.0000000
                 65      37.596171   0.0000000  -0.0289911   0.0000000   0.0000000   0.0000000
                 66       5.124069   0.0000000   0.5491908   0.0000000   0.0000000   0.0000000
                 67       2.012000   0.0000000   0.9379333   0.0000000   0.0000000   0.0000000
                 68       0.738607   0.0000000   0.0000000   1.0000000   0.0000000   0.0000000
                 69       0.271100   0.0000000   0.0000000   0.0000000   1.0000000   0.0000000
                 70       0.099540   0.0000000   0.0000000   0.0000000   0.0000000   1.0000000

 CU#1  5    Y   
+                71    2034.759669   0.0023525   0.0000000   0.0000000   0.0000000   0.0000000
                 72     481.904681   0.0191341   0.0000000   0.0000000   0.0000000   0.0000000
                 73     154.674830   0.0901711   0.0000000   0.0000000   0.0000000   0.0000000
                 74      57.740577   0.2606328   0.0000000   0.0000000   0.0000000   0.0000000
                 75      23.099053   0.4209349   0.0000000   0.0000000   0.0000000   0.0000000
                 76       9.388248   0.2434462   0.0000000   0.0000000   0.0000000   0.0000000
                 77      37.596171   0.0000000  -0.0289911   0.0000000   0.0000000   0.0000000
                 78       5.124069   0.0000000   0.5491908   0.0000000   0.0000000   0.0000000
                 79       2.012000   0.0000000   0.9379333   0.0000000   0.0000000   0.0000000
                 80       0.738607   0.0000000   0.0000000   1.0000000   0.0000000   0.0000000
                 81       0.271100   0.0000000   0.0000000   0.0000000   1.0000000   0.0000000
                 82       0.099540   0.0000000   0.0000000   0.0000000   0.0000000   1.0000000

 CU#1  1    Z   
+                83    2034.759669   0.0023525   0.0000000   0.0000000   0.0000000   0.0000000
                 84     481.904681   0.0191341   0.0000000   0.0000000   0.0000000   0.0000000
                 85     154.674830   0.0901711   0.0000000   0.0000000   0.0000000   0.0000000
                 86      57.740577   0.2606328   0.0000000   0.0000000   0.0000000   0.0000000
                 87      23.099053   0.4209349   0.0000000   0.0000000   0.0000000   0.0000000
                 88       9.388248   0.2434462   0.0000000   0.0000000   0.0000000   0.0000000
                 89      37.596171   0.0000000  -0.0289911   0.0000000   0.0000000   0.0000000
                 90       5.124069   0.0000000   0.5491908   0.0000000   0.0000000   0.0000000
                 91       2.012000   0.0000000   0.9379333   0.0000000   0.0000000   0.0000000
                 92       0.738607   0.0000000   0.0000000   1.0000000   0.0000000   0.0000000
                 93       0.271100   0.0000000   0.0000000   0.0000000   1.0000000   0.0000000
                 94       0.099540   0.0000000   0.0000000   0.0000000   0.0000000   1.0000000

 CU#1  5    Z   
+                95    2034.759669   0.0023525   0.0000000   0.0000000   0.0000000   0.0000000
                 96     481.904681   0.0191341   0.0000000   0.0000000   0.0000000   0.0000000
                 97     154.674830   0.0901711   0.0000000   0.0000000   0.0000000   0.0000000
                 98      57.740577   0.2606328   0.0000000   0.0000000   0.0000000   0.0000000
                 99      23.099053   0.4209349   0.0000000   0.0000000   0.0000000   0.0000000
                100       9.388248   0.2434462   0.0000000   0.0000000   0.0000000   0.0000000
                101      37.596171   0.0000000  -0.0289911   0.0000000   0.0000000   0.0000000
                102       5.124069   0.0000000   0.5491908   0.0000000   0.0000000   0.0000000
                103       2.012000   0.0000000   0.9379333   0.0000000   0.0000000   0.0000000
                104       0.738607   0.0000000   0.0000000   1.0000000   0.0000000   0.0000000
                105       0.271100   0.0000000   0.0000000   0.0000000   1.0000000   0.0000000
                106       0.099540   0.0000000   0.0000000   0.0000000   0.0000000   1.0000000

 CU#1  1    XX  
+               107      74.129461   0.0143632   0.0000000   0.0000000   0.0000000
                108      21.359843   0.0866282   0.0000000   0.0000000   0.0000000
                109       7.499524   0.2563143   0.0000000   0.0000000   0.0000000
                110       2.760139   0.4037406   0.0000000   0.0000000   0.0000000
                111       0.953621   0.0000000   0.3942704   0.0000000   0.0000000
                112       0.284209   0.0000000   0.0000000   0.2309115   0.0000000
                113       0.085000   0.0000000   0.0000000   0.0000000   1.0000000

 CU#1  5    XX  
+               114      74.129461   0.0143632   0.0000000   0.0000000   0.0000000
                115      21.359843   0.0866282   0.0000000   0.0000000   0.0000000
                116       7.499524   0.2563143   0.0000000   0.0000000   0.0000000
                117       2.760139   0.4037406   0.0000000   0.0000000   0.0000000
                118       0.953621   0.0000000   0.3942704   0.0000000   0.0000000
                119       0.284209   0.0000000   0.0000000   0.2309115   0.0000000
                120       0.085000   0.0000000   0.0000000   0.0000000   1.0000000

 CU#1  1    XY  
+               121      74.129461   0.0143632   0.0000000   0.0000000   0.0000000
                122      21.359843   0.0866282   0.0000000   0.0000000   0.0000000
                123       7.499524   0.2563143   0.0000000   0.0000000   0.0000000
                124       2.760139   0.4037406   0.0000000   0.0000000   0.0000000
                125       0.953621   0.0000000   0.3942704   0.0000000   0.0000000
                126       0.284209   0.0000000   0.0000000   0.2309115   0.0000000
                127       0.085000   0.0000000   0.0000000   0.0000000   1.0000000

 CU#1  5    XY  
+               128      74.129461   0.0143632   0.0000000   0.0000000   0.0000000
                129      21.359843   0.0866282   0.0000000   0.0000000   0.0000000
                130       7.499524   0.2563143   0.0000000   0.0000000   0.0000000
                131       2.760139   0.4037406   0.0000000   0.0000000   0.0000000
                132       0.953621   0.0000000   0.3942704   0.0000000   0.0000000
                133       0.284209   0.0000000   0.0000000   0.2309115   0.0000000
                134       0.085000   0.0000000   0.0000000   0.0000000   1.0000000

 CU#1  1    XZ  
+               135      74.129461   0.0143632   0.0000000   0.0000000   0.0000000
                136      21.359843   0.0866282   0.0000000   0.0000000   0.0000000
                137       7.499524   0.2563143   0.0000000   0.0000000   0.0000000
                138       2.760139   0.4037406   0.0000000   0.0000000   0.0000000
                139       0.953621   0.0000000   0.3942704   0.0000000   0.0000000
                140       0.284209   0.0000000   0.0000000   0.2309115   0.0000000
                141       0.085000   0.0000000   0.0000000   0.0000000   1.0000000

 CU#1  5    XZ  
+               142      74.129461   0.0143632   0.0000000   0.0000000   0.0000000
                143      21.359843   0.0866282   0.0000000   0.0000000   0.0000000
                144       7.499524   0.2563143   0.0000000   0.0000000   0.0000000
                145       2.760139   0.4037406   0.0000000   0.0000000   0.0000000
                146       0.953621   0.0000000   0.3942704   0.0000000   0.0000000
                147       0.284209   0.0000000   0.0000000   0.2309115   0.0000000
                148       0.085000   0.0000000   0.0000000   0.0000000   1.0000000

 CU#1  1    YY  
+               149      74.129461   0.0143632   0.0000000   0.0000000   0.0000000
                150      21.359843   0.0866282   0.0000000   0.0000000   0.0000000
                151       7.499524   0.2563143   0.0000000   0.0000000   0.0000000
                152       2.760139   0.4037406   0.0000000   0.0000000   0.0000000
                153       0.953621   0.0000000   0.3942704   0.0000000   0.0000000
                154       0.284209   0.0000000   0.0000000   0.2309115   0.0000000
                155       0.085000   0.0000000   0.0000000   0.0000000   1.0000000

 CU#1  5    YY  
+               156      74.129461   0.0143632   0.0000000   0.0000000   0.0000000
                157      21.359843   0.0866282   0.0000000   0.0000000   0.0000000
                158       7.499524   0.2563143   0.0000000   0.0000000   0.0000000
                159       2.760139   0.4037406   0.0000000   0.0000000   0.0000000
                160       0.953621   0.0000000   0.3942704   0.0000000   0.0000000
                161       0.284209   0.0000000   0.0000000   0.2309115   0.0000000
                162       0.085000   0.0000000   0.0000000   0.0000000   1.0000000

 CU#1  1    YZ  
+               163      74.129461   0.0143632   0.0000000   0.0000000   0.0000000
                164      21.359843   0.0866282   0.0000000   0.0000000   0.0000000
                165       7.499524   0.2563143   0.0000000   0.0000000   0.0000000
                166       2.760139   0.4037406   0.0000000   0.0000000   0.0000000
                167       0.953621   0.0000000   0.3942704   0.0000000   0.0000000
                168       0.284209   0.0000000   0.0000000   0.2309115   0.0000000
                169       0.085000   0.0000000   0.0000000   0.0000000   1.0000000

 CU#1  5    YZ  
+               170      74.129461   0.0143632   0.0000000   0.0000000   0.0000000
                171      21.359843   0.0866282   0.0000000   0.0000000   0.0000000
                172       7.499524   0.2563143   0.0000000   0.0000000   0.0000000
                173       2.760139   0.4037406   0.0000000   0.0000000   0.0000000
                174       0.953621   0.0000000   0.3942704   0.0000000   0.0000000
                175       0.284209   0.0000000   0.0000000   0.2309115   0.0000000
                176       0.085000   0.0000000   0.0000000   0.0000000   1.0000000

 CU#1  1    ZZ  
+               177      74.129461   0.0143632   0.0000000   0.0000000   0.0000000
                178      21.359843   0.0866282   0.0000000   0.0000000   0.0000000
                179       7.499524   0.2563143   0.0000000   0.0000000   0.0000000
                180       2.760139   0.4037406   0.0000000   0.0000000   0.0000000
                181       0.953621   0.0000000   0.3942704   0.0000000   0.0000000
                182       0.284209   0.0000000   0.0000000   0.2309115   0.0000000
                183       0.085000   0.0000000   0.0000000   0.0000000   1.0000000

 CU#1  5    ZZ  
+               184      74.129461   0.0143632   0.0000000   0.0000000   0.0000000
                185      21.359843   0.0866282   0.0000000   0.0000000   0.0000000
                186       7.499524   0.2563143   0.0000000   0.0000000   0.0000000
                187       2.760139   0.4037406   0.0000000   0.0000000   0.0000000
                188       0.953621   0.0000000   0.3942704   0.0000000   0.0000000
                189       0.284209   0.0000000   0.0000000   0.2309115   0.0000000
                190       0.085000   0.0000000   0.0000000   0.0000000   1.0000000

 CU#1  1    F300
+               191       1.209000   1.0000000   0.0000000
                192       4.936000   0.0000000   1.0000000

 CU#1  5    F300
+               193       1.209000   1.0000000   0.0000000
                194       4.936000   0.0000000   1.0000000

 CU#1  1    F210
+               195       1.209000   1.0000000   0.0000000
                196       4.936000   0.0000000   1.0000000

 CU#1  5    F210
+               197       1.209000   1.0000000   0.0000000
                198       4.936000   0.0000000   1.0000000

 CU#1  1    F201
+               199       1.209000   1.0000000   0.0000000
                200       4.936000   0.0000000   1.0000000

 CU#1  5    F201
+               201       1.209000   1.0000000   0.0000000
                202       4.936000   0.0000000   1.0000000

 CU#1  1    F120
+               203       1.209000   1.0000000   0.0000000
                204       4.936000   0.0000000   1.0000000

 CU#1  5    F120
+               205       1.209000   1.0000000   0.0000000
                206       4.936000   0.0000000   1.0000000

 CU#1  1    F111
+               207       1.209000   1.0000000   0.0000000
                208       4.936000   0.0000000   1.0000000

 CU#1  5    F111
+               209       1.209000   1.0000000   0.0000000
                210       4.936000   0.0000000   1.0000000

 CU#1  1    F102
+               211       1.209000   1.0000000   0.0000000
                212       4.936000   0.0000000   1.0000000

 CU#1  5    F102
+               213       1.209000   1.0000000   0.0000000
                214       4.936000   0.0000000   1.0000000

 CU#1  1    F030
+               215       1.209000   1.0000000   0.0000000
                216       4.936000   0.0000000   1.0000000

 CU#1  5    F030
+               217       1.209000   1.0000000   0.0000000
                218       4.936000   0.0000000   1.0000000

 CU#1  1    F021
+               219       1.209000   1.0000000   0.0000000
                220       4.936000   0.0000000   1.0000000

 CU#1  5    F021
+               221       1.209000   1.0000000   0.0000000
                222       4.936000   0.0000000   1.0000000

 CU#1  1    F012
+               223       1.209000   1.0000000   0.0000000
                224       4.936000   0.0000000   1.0000000

 CU#1  5    F012
+               225       1.209000   1.0000000   0.0000000
                226       4.936000   0.0000000   1.0000000

 CU#1  1    F003
+               227       1.209000   1.0000000   0.0000000
                228       4.936000   0.0000000   1.0000000

 CU#1  5    F003
+               229       1.209000   1.0000000   0.0000000
                230       4.936000   0.0000000   1.0000000

 CU#1  1    G400
+               231       3.245000   1.0000000

 CU#1  5    G400
+               232       3.245000   1.0000000

 CU#1  1    G310
+               233       3.245000   1.0000000

 CU#1  5    G310
+               234       3.245000   1.0000000

 CU#1  1    G301
+               235       3.245000   1.0000000

 CU#1  5    G301
+               236       3.245000   1.0000000

 CU#1  1    G220
+               237       3.245000   1.0000000

 CU#1  5    G220
+               238       3.245000   1.0000000

 CU#1  1    G211
+               239       3.245000   1.0000000

 CU#1  5    G211
+               240       3.245000   1.0000000

 CU#1  1    G202
+               241       3.245000   1.0000000

 CU#1  5    G202
+               242       3.245000   1.0000000

 CU#1  1    G130
+               243       3.245000   1.0000000

 CU#1  5    G130
+               244       3.245000   1.0000000

 CU#1  1    G121
+               245       3.245000   1.0000000

 CU#1  5    G121
+               246       3.245000   1.0000000

 CU#1  1    G112
+               247       3.245000   1.0000000

 CU#1  5    G112
+               248       3.245000   1.0000000

 CU#1  1    G103
+               249       3.245000   1.0000000

 CU#1  5    G103
+               250       3.245000   1.0000000

 CU#1  1    G040
+               251       3.245000   1.0000000

 CU#1  5    G040
+               252       3.245000   1.0000000

 CU#1  1    G031
+               253       3.245000   1.0000000

 CU#1  5    G031
+               254       3.245000   1.0000000

 CU#1  1    G022
+               255       3.245000   1.0000000

 CU#1  5    G022
+               256       3.245000   1.0000000

 CU#1  1    G013
+               257       3.245000   1.0000000

 CU#1  5    G013
+               258       3.245000   1.0000000

 CU#1  1    G004
+               259       3.245000   1.0000000

 CU#1  5    G004
+               260       3.245000   1.0000000
160128
  1  2  3  4  5  6  7  8  9 10 11 12 13 14 15 16 17 18 19************ 20 21
 22 23****** 24 25 26********* 27 28 29 30 31 32 33 34 35 36 37 38 39******
 40 41*** 42 43 44 45 46 47 48 49 50 51 52 53 54****** 55 56*** 57 58 59 60
 61 62 63 64*** 65 66 67 68 69 70 71 72 73 74 75 76 77 78 79 80 81 82 83***
********* 84 85 86 87****** 88 89 90********* 91 92 93 94 95 96 97 98 99100
101102103******104105***106107108109110111112113114115116117118******119120
***121122123124125126127128***
1

             SYMMETRY TRANSFORMATION INFO
            128 SYMMETRY ADAPTED BASIS FUNCTIONS 


          irreducible representation number 1

    1    1  CU#1     1s     2   1   1.0   2   1.0
    2    2  CU#1     1s     2   3   1.0   4   1.0
    3    3  CU#1     1s     2   5   1.0   6   1.0
    4    4  CU#1     1s     2   7   1.0   8   1.0
    5    5  CU#1     1s     2   9   1.0  10   1.0
    6    6  CU#1     1s     2  11   1.0  12   1.0
    7    7  CU#1     2pz    2  33   1.0  34  -1.0
    8    8  CU#1     2pz    2  35   1.0  36  -1.0
    9    9  CU#1     2pz    2  37   1.0  38  -1.0
   10   10  CU#1     2pz    2  39   1.0  40  -1.0
   11   11  CU#1     2pz    2  41   1.0  42  -1.0
   12   12  CU#1     3d2-   6  43  -1.0  67  -1.0  83   2.0  44  -1.0  68  -1.0  84   2.0
   13   13  CU#1     3d2-   6  45  -1.0  69  -1.0  85   2.0  46  -1.0  70  -1.0  86   2.0
   14   14  CU#1     3d2-   6  47  -1.0  71  -1.0  87   2.0  48  -1.0  72  -1.0  88   2.0
   15   15  CU#1     3d2-   6  49  -1.0  73  -1.0  89   2.0  50  -1.0  74  -1.0  90   2.0
   16   16  CU#1     3d1+   4  43   1.0  67  -1.0  44   1.0  68  -1.0
   17   17  CU#1     3d1+   4  45   1.0  69  -1.0  46   1.0  70  -1.0
   18   18  CU#1     3d1+   4  47   1.0  71  -1.0  48   1.0  72  -1.0
   19   19  CU#1     3d1+   4  49   1.0  73  -1.0  50   1.0  74  -1.0
   20   20  CU#1     4f1-   6  99  -3.0 119  -3.0 127   2.0 100   3.0 120   3.0 128  -2.0
   21   21  CU#1     4f1-   6 101  -3.0 121  -3.0 129   2.0 102   3.0 122   3.0 130  -2.0
   22   22  CU#1     4f3+   4  99   1.0 119  -1.0 100  -1.0 120   1.0
   23   23  CU#1     4f3+   4 101   1.0 121  -1.0 102  -1.0 122   1.0
   24   24  CU#1     5g4-  12 131   3.0 137   6.0 141 -24.0 151   3.0 155 -24.0 159   8.0 132   3.0 138   6.0
                              142 -24.0 152   3.0 156 -24.0 160   8.0
   25   25  CU#1     5g1-   6 131   1.0 137  -6.0 151   1.0 132   1.0 138  -6.0 152   1.0
   26   26  CU#1     5g1+   8 131  -1.0 141   6.0 151   1.0 155  -6.0 132  -1.0 142   6.0 152   1.0 156  -6.0



          irreducible representation number 2

   27    1  CU#1     2px    2  13   1.0  14   1.0
   28    2  CU#1     2px    2  15   1.0  16   1.0
   29    3  CU#1     2px    2  17   1.0  18   1.0
   30    4  CU#1     2px    2  19   1.0  20   1.0
   31    5  CU#1     2px    2  21   1.0  22   1.0
   32    6  CU#1     3d0    2  59   1.0  60  -1.0
   33    7  CU#1     3d0    2  61   1.0  62  -1.0
   34    8  CU#1     3d0    2  63   1.0  64  -1.0
   35    9  CU#1     3d0    2  65   1.0  66  -1.0
   36   10  CU#1     4f3-   6  91  -1.0 103  -1.0 111   4.0  92  -1.0 104  -1.0 112   4.0
   37   11  CU#1     4f3-   6  93  -1.0 105  -1.0 113   4.0  94  -1.0 106  -1.0 114   4.0
   38   12  CU#1     4f0    4  91   1.0 103  -3.0  92   1.0 104  -3.0
   39   13  CU#1     4f0    4  93   1.0 105  -3.0  94   1.0 106  -3.0
   40   14  CU#1     5g2-   6 135  -3.0 145  -3.0 149   4.0 136   3.0 146   3.0 150  -4.0
   41   15  CU#1     5g3+   4 135   1.0 145  -3.0 136  -1.0 146   3.0


          irreducible representation number 3

   42    1  CU#1     2py    2  23   1.0  24   1.0
   43    2  CU#1     2py    2  25   1.0  26   1.0
   44    3  CU#1     2py    2  27   1.0  28   1.0
   45    4  CU#1     2py    2  29   1.0  30   1.0
   46    5  CU#1     2py    2  31   1.0  32   1.0
   47    6  CU#1     3d2+   2  75   1.0  76  -1.0
   48    7  CU#1     3d2+   2  77   1.0  78  -1.0
   49    8  CU#1     3d2+   2  79   1.0  80  -1.0
   50    9  CU#1     3d2+   2  81   1.0  82  -1.0
   51   10  CU#1     4f2-   6  95  -1.0 115  -1.0 123   4.0  96  -1.0 116  -1.0 124   4.0
   52   11  CU#1     4f2-   6  97  -1.0 117  -1.0 125   4.0  98  -1.0 118  -1.0 126   4.0
   53   12  CU#1     4f2+   4  95   3.0 115  -1.0  96   3.0 116  -1.0
   54   13  CU#1     4f2+   4  97   3.0 117  -1.0  98   3.0 118  -1.0
   55   14  CU#1     5g0    4 139   3.0 153  -1.0 140  -3.0 154   1.0
   56   15  CU#1     5g4+   6 139  -3.0 153  -3.0 157   4.0 140   3.0 154   3.0 158  -4.0


          irreducible representation number 4

   57    1  CU#1     3d1-   2  51   1.0  52   1.0
   58    2  CU#1     3d1-   2  53   1.0  54   1.0
   59    3  CU#1     3d1-   2  55   1.0  56   1.0
   60    4  CU#1     3d1-   2  57   1.0  58   1.0
   61    5  CU#1     4f1+   2 107   1.0 108  -1.0
   62    6  CU#1     4f1+   2 109   1.0 110  -1.0
   63    7  CU#1     5g3-   6 133  -1.0 143  -1.0 147   6.0 134  -1.0 144  -1.0 148   6.0
   64    8  CU#1     5g2+   4 133   1.0 143  -1.0 134   1.0 144  -1.0


          irreducible representation number 5

   65    1  CU#1     1s     2   1   1.0   2  -1.0
   66    2  CU#1     1s     2   3   1.0   4  -1.0
   67    3  CU#1     1s     2   5   1.0   6  -1.0
   68    4  CU#1     1s     2   7   1.0   8  -1.0
   69    5  CU#1     1s     2   9   1.0  10  -1.0
   70    6  CU#1     1s     2  11   1.0  12  -1.0
   71    7  CU#1     2pz    2  33   1.0  34   1.0
   72    8  CU#1     2pz    2  35   1.0  36   1.0
   73    9  CU#1     2pz    2  37   1.0  38   1.0
   74   10  CU#1     2pz    2  39   1.0  40   1.0
   75   11  CU#1     2pz    2  41   1.0  42   1.0
   76   12  CU#1     3d2-   6  43  -1.0  67  -1.0  83   2.0  44   1.0  68   1.0  84  -2.0
   77   13  CU#1     3d2-   6  45  -1.0  69  -1.0  85   2.0  46   1.0  70   1.0  86  -2.0
   78   14  CU#1     3d2-   6  47  -1.0  71  -1.0  87   2.0  48   1.0  72   1.0  88  -2.0
   79   15  CU#1     3d2-   6  49  -1.0  73  -1.0  89   2.0  50   1.0  74   1.0  90  -2.0
   80   16  CU#1     3d1+   4  43   1.0  67  -1.0  44  -1.0  68   1.0
   81   17  CU#1     3d1+   4  45   1.0  69  -1.0  46  -1.0  70   1.0
   82   18  CU#1     3d1+   4  47   1.0  71  -1.0  48  -1.0  72   1.0
   83   19  CU#1     3d1+   4  49   1.0  73  -1.0  50  -1.0  74   1.0
   84   20  CU#1     4f1-   6  99  -3.0 119  -3.0 127   2.0 100  -3.0 120  -3.0 128   2.0
   85   21  CU#1     4f1-   6 101  -3.0 121  -3.0 129   2.0 102  -3.0 122  -3.0 130   2.0
   86   22  CU#1     4f3+   4  99   1.0 119  -1.0 100   1.0 120  -1.0
   87   23  CU#1     4f3+   4 101   1.0 121  -1.0 102   1.0 122  -1.0
   88   24  CU#1     5g4-  12 131   3.0 137   6.0 141 -24.0 151   3.0 155 -24.0 159   8.0 132  -3.0 138  -6.0
                              142  24.0 152  -3.0 156  24.0 160  -8.0
   89   25  CU#1     5g1-   6 131   1.0 137  -6.0 151   1.0 132  -1.0 138   6.0 152  -1.0
   90   26  CU#1     5g1+   8 131  -1.0 141   6.0 151   1.0 155  -6.0 132   1.0 142  -6.0 152  -1.0 156   6.0



          irreducible representation number 6

   91    1  CU#1     2px    2  13   1.0  14  -1.0
   92    2  CU#1     2px    2  15   1.0  16  -1.0
   93    3  CU#1     2px    2  17   1.0  18  -1.0
   94    4  CU#1     2px    2  19   1.0  20  -1.0
   95    5  CU#1     2px    2  21   1.0  22  -1.0
   96    6  CU#1     3d0    2  59   1.0  60   1.0
   97    7  CU#1     3d0    2  61   1.0  62   1.0
   98    8  CU#1     3d0    2  63   1.0  64   1.0
   99    9  CU#1     3d0    2  65   1.0  66   1.0
  100   10  CU#1     4f3-   6  91  -1.0 103  -1.0 111   4.0  92   1.0 104   1.0 112  -4.0
  101   11  CU#1     4f3-   6  93  -1.0 105  -1.0 113   4.0  94   1.0 106   1.0 114  -4.0
  102   12  CU#1     4f0    4  91   1.0 103  -3.0  92  -1.0 104   3.0
  103   13  CU#1     4f0    4  93   1.0 105  -3.0  94  -1.0 106   3.0
  104   14  CU#1     5g2-   6 135  -3.0 145  -3.0 149   4.0 136  -3.0 146  -3.0 150   4.0
  105   15  CU#1     5g3+   4 135   1.0 145  -3.0 136   1.0 146  -3.0


          irreducible representation number 7

  106    1  CU#1     2py    2  23   1.0  24  -1.0
  107    2  CU#1     2py    2  25   1.0  26  -1.0
  108    3  CU#1     2py    2  27   1.0  28  -1.0
  109    4  CU#1     2py    2  29   1.0  30  -1.0
  110    5  CU#1     2py    2  31   1.0  32  -1.0
  111    6  CU#1     3d2+   2  75   1.0  76   1.0
  112    7  CU#1     3d2+   2  77   1.0  78   1.0
  113    8  CU#1     3d2+   2  79   1.0  80   1.0
  114    9  CU#1     3d2+   2  81   1.0  82   1.0
  115   10  CU#1     4f2-   6  95  -1.0 115  -1.0 123   4.0  96   1.0 116   1.0 124  -4.0
  116   11  CU#1     4f2-   6  97  -1.0 117  -1.0 125   4.0  98   1.0 118   1.0 126  -4.0
  117   12  CU#1     4f2+   4  95   3.0 115  -1.0  96  -3.0 116   1.0
  118   13  CU#1     4f2+   4  97   3.0 117  -1.0  98  -3.0 118   1.0
  119   14  CU#1     5g0    4 139   3.0 153  -1.0 140   3.0 154  -1.0
  120   15  CU#1     5g4+   6 139  -3.0 153  -3.0 157   4.0 140  -3.0 154  -3.0 158   4.0


          irreducible representation number 8

  121    1  CU#1     3d1-   2  51   1.0  52  -1.0
  122    2  CU#1     3d1-   2  53   1.0  54  -1.0
  123    3  CU#1     3d1-   2  55   1.0  56  -1.0
  124    4  CU#1     3d1-   2  57   1.0  58  -1.0
  125    5  CU#1     4f1+   2 107   1.0 108   1.0
  126    6  CU#1     4f1+   2 109   1.0 110   1.0
  127    7  CU#1     5g3-   6 133  -1.0 143  -1.0 147   6.0 134   1.0 144   1.0 148  -6.0
  128    8  CU#1     5g2+   4 133   1.0 143  -1.0 134  -1.0 144   1.0
  Nuclear repulsion energy :  200.5335242531 a.u.
  required memory for a1 array                8098864  words 
  required memory for a2 array                2671072  words 
 @GETMEM-I,  Allocated      97 MB of main memory.
  @MOLECU-I, One electron integrals (CPU/WALL):        0.04/       0.09 seconds.
  @TWOEL-I,      93999 integrals of symmetry type  I I I I
  @TWOEL-I,     861753 integrals of symmetry type  I J I J
  @TWOEL-I,     491674 integrals of symmetry type  I I J J
  @TWOEL-I,    2013640 integrals of symmetry type  I J K L
  @TWOEL-I, Total number of 2-e integrals    3461066.
  @MOLECU-I, Two electron integrals (CPU/WALL):        3.69/       3.72 seconds.
  @CHECKOUT-I, Total execution time (CPU/WALL):        4.16/       4.59 seconds.
--executable xvmol finished with status     0 in        4.75 seconds (walltime).
 --invoking executable--
/home/nike/cfour_v2.00beta/cfour_v2.00beta/bin/xvmol2ja
 @GETMEM-I,  Allocated   11444 MB of main memory.
  @CHECKOUT-I, Total execution time (CPU/WALL):        0.02/       0.03 seconds.
--executable xvmol2ja finished with status     0 in        0.15 seconds (walltime).
 --invoking executable--
/home/nike/cfour_v2.00beta/cfour_v2.00beta/bin/xvscf
  There are  128 functions in the AO basis.

  There are 8 irreducible representations.

       Irrep        # of functions
         1                 26
         2                 15
         3                 15
         4                  8
         5                 26
         6                 15
         7                 15
         8                  8


  Parameters for SCF calculation: 
        SCF reference function:  RHF  
  Maximum number of iterations: ****
     Full symmetry point group: DXh 
     Computational point group: D2h 
        Initial density matrix: MOREAD                 
     SCF convergence tolerance: 10**(-12)
  DIIS convergence acceleration:  ON
          Latest start for DIIS:   5
                     DIIS order:   6

  Memory information:     838384 words required.
  Fock matrices are constructed from AO integral file.
 @GETMEM-I,  Allocated       6 MB of main memory.
  Initialization and symmetry analysis required      0.020 seconds.

  @INITGES-I, Occupancies from core Hamiltonian:

          Alpha population by irrep:   8    3    3    1    7    3    3    1
           Beta population by irrep:   8    3    3    1    7    3    3    1


 total no. of electrons in initial guess :  0.000000000000000E+000
  --------------------------------------------------------------------
  Iteration         Total Energy            Largest Density Difference
  --------------------------------------------------------------------
       0           200.533524253126245              0.0000000000D+00
   current occupation vector 
     8  3  3  1  7  3  3  1
     8  3  3  1  7  3  3  1
  processed                  93999  ao basis integrals from 
                   157  buffers.
  processed                 491674  ao basis integrals from 
                   820  buffers.
  processed                 861753  ao basis integrals from 
                  1437  buffers.
       1         -3174.459284511876376              0.2363149516D+01
   current occupation vector 
     8  3  3  1  7  3  3  1
     8  3  3  1  7  3  3  1
  processed                  93999  ao basis integrals from 
                   157  buffers.
  processed                 491674  ao basis integrals from 
                   820  buffers.
  processed                 861753  ao basis integrals from 
                  1437  buffers.
       2         -3045.696273011491030              0.2501463911D+02
   current occupation vector 
     8  3  3  1  8  2  3  1
     8  3  3  1  8  2  3  1
  processed                  93999  ao basis integrals from 
                   157  buffers.
  processed                 491674  ao basis integrals from 
                   820  buffers.
  processed                 861753  ao basis integrals from 
                  1437  buffers.
       3         -3226.850112788765273              0.2515823194D+02
   current occupation vector 
     8  3  3  1  7  3  3  1
     8  3  3  1  7  3  3  1
  processed                  93999  ao basis integrals from 
                   157  buffers.
  processed                 491674  ao basis integrals from 
                   820  buffers.
  processed                 861753  ao basis integrals from 
                  1437  buffers.
       4         -3149.475604253066649              0.1680338218D+02
   current occupation vector 
     8  3  3  1  7  3  3  1
     8  3  3  1  7  3  3  1
 
 sum over diagonal and offdiagdiagonal of C(T)*S*C for irrep
                     1
  1.019850870420669E-012  1.305433000912759E-015
 reorthoganalization of MOs is carried out
 sum over diagonal and offdiagdiagonal of C(T)*S*C for irrep
                     1
 -1.998401444325282E-015  2.600265295284289E-015
 
 sum over diagonal and offdiagdiagonal of C(T)*S*C for irrep
                     2
  2.142730437526552E-014 -2.032099811764899E-014
 reorthoganalization of MOs is carried out
 sum over diagonal and offdiagdiagonal of C(T)*S*C for irrep
                     2
 -9.992007221626409E-016 -2.817184824638023E-015
 
 sum over diagonal and offdiagdiagonal of C(T)*S*C for irrep
                     3
  5.317968287954500E-014  7.310175779494560E-013
 reorthoganalization of MOs is carried out
 sum over diagonal and offdiagdiagonal of C(T)*S*C for irrep
                     3
 -1.110223024625157E-015 -4.147706178534147E-016
 
 sum over diagonal and offdiagdiagonal of C(T)*S*C for irrep
                     4
 -6.217248937900877E-015 -6.288076692429964E-015
 reorthoganalization of MOs is carried out
 sum over diagonal and offdiagdiagonal of C(T)*S*C for irrep
                     4
 -6.661338147750939E-016 -1.421551909263712E-016
 
 sum over diagonal and offdiagdiagonal of C(T)*S*C for irrep
                     5
 -8.774092563612612E-013  4.275153144071677E-013
 reorthoganalization of MOs is carried out
 sum over diagonal and offdiagdiagonal of C(T)*S*C for irrep
                     5
  9.436895709313831E-015  7.501017012345529E-015
 
 sum over diagonal and offdiagdiagonal of C(T)*S*C for irrep
                     6
  8.626432901337466E-014 -4.843642560772492E-015
 reorthoganalization of MOs is carried out
 sum over diagonal and offdiagdiagonal of C(T)*S*C for irrep
                     6
  4.440892098500626E-016  5.201811792407754E-016
 
 sum over diagonal and offdiagdiagonal of C(T)*S*C for irrep
                     7
 -2.773337115513641E-013 -7.855026384420447E-013
 reorthoganalization of MOs is carried out
 sum over diagonal and offdiagdiagonal of C(T)*S*C for irrep
                     7
 -1.776356839400250E-015 -1.245495623608669E-015
 
 sum over diagonal and offdiagdiagonal of C(T)*S*C for irrep
                     8
  9.547918011776346E-015  1.252296888293967E-014
 reorthoganalization of MOs is carried out
 sum over diagonal and offdiagdiagonal of C(T)*S*C for irrep
                     8
  6.661338147750939E-016  6.307835932805157E-016
  processed                  93999  ao basis integrals from 
                   157  buffers.
  processed                 491674  ao basis integrals from 
                   820  buffers.
  processed                 861753  ao basis integrals from 
                  1437  buffers.
       5         -3235.623999893038217              0.1680557648D+02
   current occupation vector 
     8  3  3  1  7  3  3  1
     8  3  3  1  7  3  3  1
  processed                  93999  ao basis integrals from 
                   157  buffers.
  processed                 491674  ao basis integrals from 
                   820  buffers.
  processed                 861753  ao basis integrals from 
                  1437  buffers.
       6         -3272.931711018030455              0.1713373267D+01
   current occupation vector 
     8  3  3  1  7  3  3  1
     8  3  3  1  7  3  3  1
  processed                  93999  ao basis integrals from 
                   157  buffers.
  processed                 491674  ao basis integrals from 
                   820  buffers.
  processed                 861753  ao basis integrals from 
                  1437  buffers.
       7         -3277.696365158103617              0.3017131122D+00
   current occupation vector 
     8  3  3  1  7  3  3  1
     8  3  3  1  7  3  3  1
  processed                  93999  ao basis integrals from 
                   157  buffers.
  processed                 491674  ao basis integrals from 
                   820  buffers.
  processed                 861753  ao basis integrals from 
                  1437  buffers.
       8         -3277.803650147463031              0.6671933497D-01
   current occupation vector 
     8  3  3  1  7  3  3  1
     8  3  3  1  7  3  3  1
  processed                  93999  ao basis integrals from 
                   157  buffers.
  processed                 491674  ao basis integrals from 
                   820  buffers.
  processed                 861753  ao basis integrals from 
                  1437  buffers.
       9         -3277.855705633905927              0.2845414739D-01
   current occupation vector 
     8  3  3  1  7  3  3  1
     8  3  3  1  7  3  3  1
 
 sum over diagonal and offdiagdiagonal of C(T)*S*C for irrep
                     1
  1.039168751049147E-012 -7.126382424469602E-013
 reorthoganalization of MOs is carried out
 sum over diagonal and offdiagdiagonal of C(T)*S*C for irrep
                     1
  3.330669073875470E-016 -2.282433891645055E-015
 
 sum over diagonal and offdiagdiagonal of C(T)*S*C for irrep
                     2
  3.508304757815495E-014 -1.398534893430498E-014
 reorthoganalization of MOs is carried out
 sum over diagonal and offdiagdiagonal of C(T)*S*C for irrep
                     2
 -3.330669073875470E-016  1.337964386231439E-017
 
 sum over diagonal and offdiagdiagonal of C(T)*S*C for irrep
                     3
  4.352074256530614E-014 -1.995353649232997E-013
 reorthoganalization of MOs is carried out
 sum over diagonal and offdiagdiagonal of C(T)*S*C for irrep
                     3
 -4.440892098500626E-016  3.568565107859517E-016
 
 sum over diagonal and offdiagdiagonal of C(T)*S*C for irrep
                     4
  7.882583474838611E-015  1.225623826160696E-014
 reorthoganalization of MOs is carried out
 sum over diagonal and offdiagdiagonal of C(T)*S*C for irrep
                     4
  0.000000000000000E+000 -3.940371216478617E-016
 
 sum over diagonal and offdiagdiagonal of C(T)*S*C for irrep
                     5
 -8.650857807879220E-013  8.649317422554787E-013
 reorthoganalization of MOs is carried out
 sum over diagonal and offdiagdiagonal of C(T)*S*C for irrep
                     5
 -8.881784197001252E-016  2.809417940928113E-015
 
 sum over diagonal and offdiagdiagonal of C(T)*S*C for irrep
                     6
  9.203748874142548E-014 -9.177311378468327E-014
 reorthoganalization of MOs is carried out
 sum over diagonal and offdiagdiagonal of C(T)*S*C for irrep
                     6
  1.332267629550188E-015 -1.520945206451134E-015
 
[...]
                 Spin      RMS          Max.      Max. change for
     Amplitude   Case     Change       Change       i    j    a    b
    -------------------------------------------------------------------
        T1        AA    0.0000000002 0.0000000214    8        61
        T2        AA    0.0000000000-0.0000000013    3    1   65   61
        T2        AB    0.0000000000 0.0000000032    3    3   61   61
    -------------------------------------------------------------------
   The AA contribution to the correlation energy is:   -0.1520510 a.u.
   The AB contribution to the correlation energy is:   -0.5784201 a.u.
   The total correlation energy is -0.882522009710 a.u.
   The total correlation energy is -0.882522009710 a.u.
  Current DIIS expansion coefficients : 
 [   1]-0.0923567594 [   2]-0.1393507593 [   3] 0.2598704226 [   4] 0.9409879675
 [   5] 0.0308491286
  Convergence information after    24 iterations: 
  Largest element of residual vector :  0.21443591E-07.
  Largest element of DIIS residual   :  0.15276831E-07.
  W(mnij) AB contribution =  0.0882180971 a.u.
  W(abef) AB contribution =  0.0927322045 a.u.
  W(mbej) AB contribution = -0.1553965590 a.u.
   After  25 iterations, amplitude changes are:
    -------------------------------------------------------------------
                 Spin      RMS          Max.      Max. change for
     Amplitude   Case     Change       Change       i    j    a    b
    -------------------------------------------------------------------
        T1        AA    0.0000000002 0.0000000223    8        61
        T2        AA    0.0000000000-0.0000000007   10    3   61   42
        T2        AB    0.0000000000 0.0000000019    8    8   61   61
    -------------------------------------------------------------------
   The AA contribution to the correlation energy is:   -0.1520510 a.u.
   The AB contribution to the correlation energy is:   -0.5784201 a.u.
   The total correlation energy is -0.882522010471 a.u.
   The total correlation energy is -0.882522010471 a.u.
  Current DIIS expansion coefficients : 
 [   1] 0.0514667116 [   2]-0.0126591911 [   3]-0.5292097961 [   4]-0.2099772867
 [   5] 1.7003795623
  Convergence information after    25 iterations: 
  Largest element of residual vector :  0.22271603E-07.
  Largest element of DIIS residual   :  0.13625191E-07.
   Largest T1 amplitudes for spin case AA:
   i       a                 i       a                 i       a    
-----------------------------------------------------------------------------
[  3      13    ] 0.05626 [  8      61    ] 0.03281 [  9      80    ] 0.03180
[ 10      92    ] 0.03180 [  6      54    ]-0.02954 [  2      14    ]-0.02954
[  8      62    ] 0.02869 [  3      12    ] 0.02803 [  5      43    ] 0.02634
[  4      31    ] 0.02634 [  8      63    ]-0.02328 [  8      65    ] 0.02042
[  1      13    ] 0.01989 [ 11     104    ]-0.01897 [  7      64    ]-0.01897
-----------------------------------------------------------------------------
   Norm of T1AA vector (      154 symmetry allowed elements):  0.1260684226.
-----------------------------------------------------------------------------
   Largest T2 amplitudes for spin case AB:
       _       _                 _       _                 _       _
   i   j   a   b             i   j   a   b             i   j   a   b
-----------------------------------------------------------------------------
[  3   3  30  30]-0.08557 [  3   3  42  42]-0.08557 [  3   3  61  61]-0.06844
[  3   3  12  12]-0.04186 [  3   3  62  61]-0.04038 [  3   3  61  62]-0.04038
[  3   3  62  62]-0.02581 [  3   3  15  12] 0.02330 [  3   3  12  15] 0.02330
[  3   3  31  30]-0.02180 [  3   3  30  31]-0.02180 [  3   3  43  42]-0.02180
[  3   3  42  43]-0.02180 [  3   3  65  61]-0.01795 [  3   3  61  65]-0.01795
-----------------------------------------------------------------------------
   Norm of T2AB vector (   149441 symmetry allowed elements):  0.3668236201.
-----------------------------------------------------------------------------
  W(mnij) AB contribution =  0.0882180978 a.u.
  W(abef) AB contribution =  0.0927322048 a.u.
  W(mbej) AB contribution = -0.1553965601 a.u.
   After  26 iterations, amplitude changes are:
    -------------------------------------------------------------------
                 Spin      RMS          Max.      Max. change for
     Amplitude   Case     Change       Change       i    j    a    b
    -------------------------------------------------------------------
        T1        AA    0.0000000001 0.0000000040    8        62
        T2        AA    0.0000000000 0.0000000007    8    3   61   13
        T2        AB    0.0000000000-0.0000000014    8    8   61   61
    -------------------------------------------------------------------
   The AA contribution to the correlation energy is:   -0.1520510 a.u.
   The AB contribution to the correlation energy is:   -0.5784201 a.u.
   The total correlation energy is -0.882522010900 a.u.
   The total correlation energy is -0.882522010900 a.u.
  Current DIIS expansion coefficients : 
 [   1] 0.9281106116 [   2] 0.0461128373 [   3]-0.1138668111 [   4]-0.1656942563
 [   5] 0.3053376185
  Convergence information after    26 iterations: 
  Largest element of residual vector :  0.39665885E-08.
  Largest element of DIIS residual   :  0.43960252E-08.
  W(mnij) AB contribution =  0.0882180981 a.u.
  W(abef) AB contribution =  0.0927322051 a.u.
  W(mbej) AB contribution = -0.1553965605 a.u.
   After  27 iterations, amplitude changes are:
    -------------------------------------------------------------------
                 Spin      RMS          Max.      Max. change for
     Amplitude   Case     Change       Change       i    j    a    b
    -------------------------------------------------------------------
        T1        AA    0.0000000001 0.0000000074    8        61
        T2        AA    0.0000000000 0.0000000002    8    3   62   13
        T2        AB    0.0000000000 0.0000000007    1    1   61   61
    -------------------------------------------------------------------
   The AA contribution to the correlation energy is:   -0.1520510 a.u.
   The AB contribution to the correlation energy is:   -0.5784201 a.u.
   The total correlation energy is -0.882522010847 a.u.
   The total correlation energy is -0.882522010847 a.u.
  Current DIIS expansion coefficients : 
 [   1] 0.2513088019 [   2] 1.1539364042 [   3] 0.0492672776 [   4]-0.0080177945
 [   5]-0.4464946892
  Convergence information after    27 iterations: 
  Largest element of residual vector :  0.74143571E-08.
  Largest element of DIIS residual   : -0.17510772E-08.
  W(mnij) AB contribution =  0.0882180982 a.u.
  W(abef) AB contribution =  0.0927322051 a.u.
  W(mbej) AB contribution = -0.1553965606 a.u.
   After  28 iterations, amplitude changes are:
    -------------------------------------------------------------------
                 Spin      RMS          Max.      Max. change for
     Amplitude   Case     Change       Change       i    j    a    b
    -------------------------------------------------------------------
        T1        AA    0.0000000000 0.0000000020    8        62
        T2        AA    0.0000000000 0.0000000001    8    3   62   13
        T2        AB    0.0000000000-0.0000000005    3    3   12   12
    -------------------------------------------------------------------
   The AA contribution to the correlation energy is:   -0.1520510 a.u.
   The AB contribution to the correlation energy is:   -0.5784201 a.u.
   The total correlation energy is -0.882522011345 a.u.
   The total correlation energy is -0.882522011345 a.u.
  Current DIIS expansion coefficients : 
 [   1] 0.0305897758 [   2] 0.3544986468 [   3] 0.7411012850 [   4] 0.0129038659
 [   5]-0.1390935734
  Convergence information after    28 iterations: 
  Largest element of residual vector :  0.19773585E-08.
  Largest element of DIIS residual   :  0.18598777E-08.
  W(mnij) AB contribution =  0.0882180983 a.u.
  W(abef) AB contribution =  0.0927322051 a.u.
  W(mbej) AB contribution = -0.1553965607 a.u.
   After  29 iterations, amplitude changes are:
    -------------------------------------------------------------------
                 Spin      RMS          Max.      Max. change for
     Amplitude   Case     Change       Change       i    j    a    b
    -------------------------------------------------------------------
        T1        AA    0.0000000000 0.0000000009    8        61
        T2        AA    0.0000000000 0.0000000001    8    3   62   13
        T2        AB    0.0000000000-0.0000000003    3    3   12   12
    -------------------------------------------------------------------
   The AA contribution to the correlation energy is:   -0.1520510 a.u.
   The AB contribution to the correlation energy is:   -0.5784201 a.u.
   The total correlation energy is -0.882522011140 a.u.
   The total correlation energy is -0.882522011140 a.u.
  Current DIIS expansion coefficients : 
 [   1]-0.0788262189 [   2]-0.2833757675 [   3] 0.1187062838 [   4] 1.1829503757
 [   5] 0.0605453269
  Convergence information after    29 iterations: 
  Largest element of residual vector :  0.87975820E-09.
  Largest element of DIIS residual   : -0.48627383E-09.
  Amplitude equations converged in    29iterations.
   The AA contribution to the correlation energy is:   -0.1520510 a.u.
   The AB contribution to the correlation energy is:   -0.5784201 a.u.
   The total correlation energy is -0.882522011226 a.u.
   The total correlation energy is -0.882522011226 a.u.
   The CC iterations have converged.

   Largest T1 amplitudes for spin case AA:
   i       a                 i       a                 i       a    
-----------------------------------------------------------------------------
[  3      13    ] 0.05626 [  8      61    ] 0.03281 [ 10      92    ] 0.03180
[  9      80    ] 0.03180 [  6      54    ]-0.02954 [  2      14    ]-0.02954
[  8      62    ] 0.02869 [  3      12    ] 0.02803 [  4      31    ] 0.02634
[  5      43    ] 0.02634 [  8      63    ]-0.02328 [  8      65    ] 0.02042
[  1      13    ] 0.01989 [ 11     104    ]-0.01897 [  7      64    ]-0.01897
-----------------------------------------------------------------------------
   Norm of T1AA vector (      154 symmetry allowed elements):  0.1260684386.
-----------------------------------------------------------------------------
   Largest T2 amplitudes for spin case AB:
       _       _                 _       _                 _       _
   i   j   a   b             i   j   a   b             i   j   a   b
-----------------------------------------------------------------------------
[  3   3  42  42]-0.08557 [  3   3  30  30]-0.08557 [  3   3  61  61]-0.06844
[  3   3  12  12]-0.04186 [  3   3  62  61]-0.04038 [  3   3  61  62]-0.04038
[  3   3  62  62]-0.02581 [  3   3  15  12] 0.02330 [  3   3  12  15] 0.02330
[  3   3  43  42]-0.02180 [  3   3  42  43]-0.02180 [  3   3  31  30]-0.02180
[  3   3  30  31]-0.02180 [  3   3  65  61]-0.01795 [  3   3  61  65]-0.01795
-----------------------------------------------------------------------------
   Norm of T2AB vector (   149441 symmetry allowed elements):  0.3668236207.
-----------------------------------------------------------------------------
       Summary of iterative solution of CC equations 
      -----------------------------------------------------------
                       Correlation           Total
       Iteration         Energy              Energy
      -----------------------------------------------------------
            0        -1.012815029708   -3278.872252320562  DIIS 
            1        -0.819798246158   -3278.679235537012  DIIS 
            2        -0.908350962213   -3278.767788253067  DIIS 
            3        -0.879763009587   -3278.739200300441  DIIS 
            4        -0.879855147224   -3278.739292438078  DIIS 
            5        -0.882118202824   -3278.741555493678  DIIS 
            6        -0.882431655180   -3278.741868946034  DIIS 
            7        -0.882389924830   -3278.741827215684  DIIS 
            8        -0.882553294584   -3278.741990585438  DIIS 
            9        -0.882482054070   -3278.741919344925  DIIS 
           10        -0.882511987889   -3278.741949278743  DIIS 
           11        -0.882525646146   -3278.741962937000  DIIS 
           12        -0.882516180047   -3278.741953470901  DIIS 
           13        -0.882520810996   -3278.741958101850  DIIS 
           14        -0.882522559977   -3278.741959850831  DIIS 
           15        -0.882521076340   -3278.741958367194  DIIS 
           16        -0.882522344884   -3278.741959635738  DIIS 
           17        -0.882522134942   -3278.741959425796  DIIS 
           18        -0.882522028402   -3278.741959319257  DIIS 
           19        -0.882522057163   -3278.741959348018  DIIS 
           20        -0.882522028666   -3278.741959319520  DIIS 
           21        -0.882522001287   -3278.741959292141  DIIS 
           22        -0.882522016646   -3278.741959307500  DIIS 
           23        -0.882522009580   -3278.741959300434  DIIS 
           24        -0.882522009710   -3278.741959300564  DIIS 
           25        -0.882522010471   -3278.741959301325  DIIS 
           26        -0.882522010900   -3278.741959301754  DIIS 
           27        -0.882522010847   -3278.741959301701  DIIS 
           28        -0.882522011345   -3278.741959302199  DIIS 
           29        -0.882522011226   -3278.741959302080  DIIS 
      -----------------------------------------------------------
      A miracle has come to pass. The CC iterations have converged.
 @DIMT3-I, Dimensions of T3 amplitudes : 
               # abc          # ijk       Symmetry    Spin 
                    19837             14     1          1
                    19624             22     2          1
                    19624             22     3          1
                    19364             22     4          1
                    19788             19     5          1
                    19624             22     6          1
                    19624             22     7          1
                    19364             22     8          1
                    61275             72     1          2
                    60048             76     2          2
                    60048             76     3          2
                    58778             76     4          2
                    61226             77     5          2
                    60048             76     6          2
                    60048             76     7          2
                    58778             76     8          2
                    61275             72     1          3
                    60048             76     2          3
                    60048             76     3          3
                    58778             76     4          3
                    61226             77     5          3
                    60048             76     6          3
                    60048             76     7          3
                    58778             76     8          3
                    19837             14     1          4
                    19624             22     2          4
                    19624             22     3          4
                    19364             22     4          4
                    19788             19     5          4
                    19624             22     6          4
                    19624             22     7          4
                    19364             22     8          4
 @DIMT3-I, Dimensions of T3 amplitudes : 
               # abc          # ijk       Symmetry    Spin 
                    19837             14     1          1
                    19624             22     2          1
                    19624             22     3          1
                    19364             22     4          1
                    19788             19     5          1
                    19624             22     6          1
                    19624             22     7          1
                    19364             22     8          1
                    61275             72     1          2
                    60048             76     2          2
                    60048             76     3          2
                    58778             76     4          2
                    61226             77     5          2
                    60048             76     6          2
                    60048             76     7          2
                    58778             76     8          2
                    61275             72     1          3
                    60048             76     2          3
                    60048             76     3          3
                    58778             76     4          3
                    61226             77     5          3
                    60048             76     6          3
                    60048             76     7          3
                    58778             76     8          3
                    19837             14     1          4
                    19624             22     2          4
                    19624             22     3          4
                    19364             22     4          4
                    19788             19     5          4
                    19624             22     6          4
                    19624             22     7          4
                    19364             22     8          4
 @TRPS-I, Welcome to TRPS. Watch your RUs ! 
 @TRPS-I, Method is CCSD(T) 
 @TRPS-I, Calculation type is energy 
 @TRPS-I, Reference function information : 
          Reference function is Hartree-Fock 
          Reference function is RHF Hartree-Fock 
 @TRPS-I, INT1 is true 
 @TRPS-I, INT2 is false 
 @TRPS-I, Lengths of ijka integrals. #1       7471
                                     #2       7471
                                     #3      16636
                                     #4      16636
                                    Max      16636
 @INITRP-I, Initializing W intermediate lists. 
 @SETOOOV-I, Some OOOV lists are being transposed. 
 @TRPS-I, Available memory in integer words   1499959040
          Number of pre-allocated words for TRPS2        65446
          Number of free words for TRPS2   1499893594
 @TRPS2-I, Spin case AAB 
 @TRPS2-I, Number of free integer words 1499893594
           Number of free double  words 1499893594
           Ratio                                 1
 @TRPS2-I, E4TBAA      -0.022847649732
  @TRPS2-I, E4TAAA  -2.358206663684748E-003
 @TRPS2-I, E5ST A    0.002637662496320
 @TRPS2-I, E5ST B    0.001780534327138
 @SETOOOV-I, Some OOOV lists are being transposed. 
 @CCENRG-I, CCSD/QCISD energy will now be evaluated. 
 @CCENRG-I, Correlation energies. ECCAA       -0.152050952916
                                  ECCBB        0.000000000000
                                  ECCAB       -0.578420105395
                                  Total       -0.882522011226
 @CCENRG-I, Reference   energy   -3277.859437290854
            CCSD/QCISD energy    -3278.741959302080
          E4T (T(CCSD)) = -0.050411712791
          E5ST          =  0.008836393647
          E4ST          =  0.000000000000
          In other words  
          <T3[2](Dagger) D3  T3[2]> = -0.050411712791
          <T1   (Dagger) Q1 WT3[2]> =  0.008836393647
          <T2   (Dagger) Q2 FT3[2]> =  0.000000000000
        E(CCSD)           =   -3278.741959302080
        E(CCSD + T(CCSD)) =   -3278.792371014871
        E(CCSD(T))        =   -3278.783534621224
  @CHECKOUT-I, Total execution time (CPU/WALL):        9.76/      11.67 seconds.
--executable xvcc finished with status     0 in       11.82 seconds (walltime).
  The final electronic energy is     -3278.783534621223680 a.u. 
  This computation required                           38.74 seconds (walltime).
