 --invoking executable--
/project1/nike/cfour_v2.00beta_May2019xnmol_noLABBASIS/bin/xjoda


   *************************************************************************
         <<<     CCCCCC     CCCCCC   |||     CCCCCC     CCCCCC   >>>
       <<<      CCC        CCC       |||    CCC        CCC         >>>
      <<<      CCC        CCC        |||   CCC        CCC            >>>
    <<<        CCC        CCC        |||   CCC        CCC              >>>
      <<<      CCC        CCC        |||   CCC        CCC            >>>
       <<<      CCC        CCC       |||    CCC        CCC         >>>
         <<<     CCCCCC     CCCCCC   |||     CCCCCC     CCCCCC   >>>
   *************************************************************************

     ****************************************************************
     * CFOUR Coupled-Cluster techniques for Computational Chemistry *
     ****************************************************************
 

   Department of Chemistry                Institut fuer Physikalische Chemie
   University of Texas at Austin          Universitaet Mainz
   Austin, TX  78712, USA                 D-55099 Mainz, Germany
 
                       Version 2.00beta
 
                     req22                                             
                     Tue Mar 10 00:40:41 EDT 2020                      
                     integer*8 version is running
 
********************************************************************************
*                          Input from ZMAT file                                *
********************************************************************************
TITLE                                                                           
Mg                                                                              
Cl 1 R1                                                                         
X 1 D 2 A90                                                                     
Cl 1 R2 3 A90 2 D180                                                            
                                                                                
R1=4.11960295168                                                                
R2=4.11960295168                                                                
D=1                                                                             
A90=90                                                                          
D180=180                                                                        
A=180.0                                                                         
                                                                                
*ACES2(CALC=CCSD(T)                                                             
UNITS=BOHR                                                                      
#GEOM=2.180*10/5.29177210903_fromCCCBDBwhcihReferencesGurvich1989               
#COORD=CARTESIAN                                                                
COORD=INTERNAL                                                                  
PRINT=4                                                                         
JODA_PRINT=4                                                                    
INPUT_MRCC=OFF                                                                  
#CC_PROG=MRCC                                                                   
#FROZEN_CORE=ON                                                                 
DROPMO=1>12                                                                     
CONTRACTION=GENERAL                                                             
#CONTRACTION=SEGMENTED                                                          
RELATIVISTIC=OFF                                                                
#EXCITE=EOMEE                                                                   
#ESTATE_CONV=5                                                                  
#ESTATE_SYM=2/2/2/2/2/2/2/2                                                     
XFORM_TOL=18                                                                    
SAVE_INTS=ON                                                                    
SCF_EXPORDER=6                                                                  
SCF_EXPSTART=5                                                                  
#SCF_DAMPING=1000                                                               
SCF_EXTRAPOLATION=ON                                                            
SCF_CONV=13                                                                     
SCF_MAXCYC=99999                                                                
CC_CONV=9                                                                       
CC_MAXCYC=999                                                                   
T3_EXTRAPOL=ON                                                                  
REFERENCE=ROHF                                                                  
CHARGE=+1                                                                       
MULT=2                                                                          
ABCDTYPE=STANDARD                                                               
#OCCUPATION=5-2-2-0-4-1-1-0                                                     
#OCCUPATION=3-2-2-0-1-0-0-0/3-1-1-0-1-0-0-0                                     
MEM=2                                                                           
MEM_UNIT=GB                                                                     
BASIS=SPECIAL)                                                                  
                                                                                
MG:def2-TZVPP                                                                   
CL:def2-TZVPP                                                                   
CL:def2-TZVPP                                                                   
                                                                                
********************************************************************************
  @GTFLGS-W, Keyword #GEOM not known and is ignored.
  @GTFLGS-W, Keyword #COORD not known and is ignored.
  @GTFLGS-W, Keyword #CC_PROG not known and is ignored.
  @GTFLGS-W, Keyword #FROZEN_CORE not known and is ignored.
  @GTFLGS-W, Keyword #CONTRACTION not known and is ignored.
  @GTFLGS-W, Keyword #EXCITE not known and is ignored.
  @GTFLGS-W, Keyword #ESTATE_CONV not known and is ignored.
  @GTFLGS-W, Keyword #ESTATE_SYM not known and is ignored.
  @GTFLGS-W, Keyword #SCF_DAMPING not known and is ignored.
  @GTFLGS-W, Keyword #OCCUPATION not known and is ignored.
  @GTFLGS-W, Keyword #OCCUPATION not known and is ignored.
    -------------------------------------------------------------------
                    CFOUR Control Parameters 
    -------------------------------------------------------------------
        External           Internal           Value            Units
          Name               Name
    -------------------------------------------------------------------
       ABCDTYPE             IABCDT         STANDARD     [  0]   ***   
       ANHARMONIC           IANHAR         OFF          [  0]   ***   
       ANH_ALGORIT          IANALG         STANDARD     [  0]   ***   
       ANH_DERIVAT          IANDER         SECOND       [  1]   ***   
       ANH_STEPSIZ          ICUBST             50000          x 10-6  
       ANH_SYMMETR          IANHSM         ABELIAN      [  0]   ***   
       AO_LADDERS           IAOLAD         SINGLEPASS   [  1]   ***   
       BASIS                IBASIS         SPECIAL      [  0]   ***   
       BREIT                IBREIT         OFF          [  0]   ***   
       BRUCK_CONV           IBRTOL          10D-  4             ***   
       BRUECKNER            IBRKNR             OFF      [  0]   ***   
       BUFFERSIZE           IBUFFS            600               ***   
       CACHE_RECS           ICHREC             10               ***   
       CALCLEVEL            ICLLVL           CCSD(T)    [ 22]   ***   
       CCORBOPT             ICCORB             OFF      [  0] x 0.01  
       CC_CONV              ICCCNV          10D-  9             ***   
       CC_EXPORDER          ICCEOR              5               ***   
       CC_EXTRAPOL          ICCEXT             DIIS     [  1]   ***   
       CC_MAXCYC            ICCCYC            999              cycles 
       CC_PROGRAM           ICCPRO         VCC          [  0]   ***   
       CHARGE               ICHRGE              1               ***   
       CHOLESKY             ICHOLE         OFF          [  0]   ***   
       CIS_CONV             ICISTL              5               ***   
       COMM_SIZE            IPSIZE            ***               ***   
       CONSTANT             ICONST         OLD          [  1]   ***   
       CONTINUUM            ICONTU         NONE         [  0]   ***   
       CONTRACTION          ICNTYP          GENERAL     [  1]   ***   
       COORDINATES          ICOORD         INTERNAL     [  0]   ***   
       CPHF_CONVER          ICPHFT          10D- 16             ***   
       CPHF_MAXCYC          ICPHFC             64              cycles 
       CUBIC                ICUBIC         OFF          [  0]   ***   
       CURVILINEAR          ICURVY            OFF       [  0]   ***   
       DBOC                 IDBOC          OFF          [  0]   ***   
       DCT                  IDCT           OFF          [  0]   ***   
       DERIV_LEV            IDRLVL            ZERO      [  0]   ***   
       DIAG_MRCC            IEOMST          10D-  0             ***   
       DIFF_TYPE            IDIFTY         RELAXED      [  0]   ***   
       DIRECT               IDIRCT         OFF          [  0]   ***   
       DROPMO               IDRPMO A   1,  2,  3,  4,  5,  6,  7,  8,
                                       9, 10, 11, 12,
                                   B   1,  2,  3,  4,  5,  6,  7,  8,
                                       9, 10, 11, 12,
       ECP                  IECP           OFF          [  0]   ***   
       EIGENVECTOR          IVEC                1               ***   
       EL_ANHARM            IELANH         OFF          [  0]   ***   
       EOMFOLLOW            IEOMSR         ENERGY       [  0]   ***   
       EOM_MRCC             IMRCCE         NEW          [  1]   ***   
       EOM_NONIT            EOMNON         OFF          [  0]   ***   
       EOM_NSING            IEOMSI          10D-  0             ***   
       EOM_NSTATES          IMRCCD         DAVIDSON     [  0]   ***   
       EOM_NTRIP            IEOMTR          10D-  0             ***   
       EOM_ORDER            IEXORD         ENERGY       [  0]   ***   
       ESTATE_CONV          IEXTOL          10D-  5             ***   
       ESTATE_DIAG          IEXDIG         ITERATIVE    [  0]   ***   
       ESTATE_LOCK          IESLOC         ON           [  1]   ***   
       ESTATE_MAXC          IEXMXC             20               ***   
       ESTATE_PROP          IEXPRP         OFF          [  0]   ***   
       EVAL_HESS            IRECAL              0            # of cyc.
       EXCITATION           IEXCIT              0               ***   
       EXCITE               IEXCIT         NONE         [  0]   ***   
       FCGRADNEW            IFCGNW         OFF          [  0]   ***   
       FC_FIELD             IFINFC              0             x 10-6  
       FD_CALTYPE           IFDCAL         GRADONLY     [  0]   ***   
       FD_PROJECT           IFDPRJ         OFF          [  1]   ***   
       FD_STEPSIZE          IDISFD              0            10-4 bohr
       FD_USEGROUP          IFDGRP         FULL         [  0]   ***   
       FILE_RECSIZ          IFLREC              4096           words  
       FINITE_PERT          IFIPER              0             x 10-6  
       FIXGEOM              IFIXGM         OFF          [  0]   ***   
       FOCK                 IFOCK          AO           [  1]   ***   
       FREQ_ALGORI          IVIALG         STANDARD     [  0]   ***   
       FROZEN_CORE          IFROCO         OFF          [  0]   ***   
       FROZEN_VIRT          IFROVI         OFF          [  0]   ***   
       GAMMA_ABCD           IGABCD         STORE        [  0]   ***   
       GAMMA_ABCI           IGABCI         STORE        [  0]   ***   
       GENBAS_1             IGNBS1              0               ***   
       GENBAS_2             IGNBS2              0               ***   
       GENBAS_3             IGNBS3              0               ***   
       GENBAS_4             IGNBS4              0               ***   
       GEO_CONV             ICONTL              5              H/bohr 
       GEO_MAXCYC           IOPTCY             50               ***   
       GEO_MAXSTEP          IMXSTP            300            millibohr
       GEO_METHOD           INR            SINGLE_POINT [  5]   ***   
       GIAO                 IGIAO          OFF          [  1]   ***   
       GIMIC                IGIMIC         OFF          [  0]   ***   
       GRID                 IGRID          OFF          [  0]   ***   
       GRID_ALGO            IGALGO         SERIAL       [  0]   ***   
       GUESS                IGUESS            MOREAD    [  0]   ***   
       HBAR                 IHBAR              OFF      [  0]   ***   
       HESS_TYPE            IHESTP         SCF          [  0]   ***   
       HF2_FILE             IHF2Fl         USE          [  1]   ***   
       HFSTABILITY          ISTABL         OFF          [  0]   ***   
       INCORE               INCORE             OFF      [  0]   ***   
       INPUT_MRCC           IMRCC          OFF          [  0]   ***   
       INTEGRALS            INTTYP             VMOL     [  1]   ***   
       JODA_PRINT           IJPRNT              4               ***   
       LINDEP_TOL           ILINDP              8               ***   
       LINEQ_CONV           IZTACN          10D-  7           cycles  
       LINEQ_EXPOR          ILMAXD              5               ***   
       LINEQ_MAXCY          ILMAXC             50               ***   
       LINEQ_TYPE           ILTYPE         DIIS         [  1]   ***   
       LOCK_ORBOCC          ILOCOC             OFF      [  0]   ***   
       MEMORY_SIZE          IMEMSZ         250000000           words  
       MEM_UNIT             IMEMU          GB           [  3]   ***   
       MRCC                 IMRCCC         OFF          [  0]   ***   
       MULTIPLICTY          IMULTP              2               ***   
       NEGEVAL              IDIE             ABORT      [  0]   ***   
       NEWNORM              INEWNO         OFF          [  0]   ***   
       NON-HF               INONHF              ON      [  1]   ***   
       NTOP_TAMP            ITOPT2             15               ***   
       NUC_MODEL            INUCMO         POINT        [  0]   ***   
       OCCUPATION           IOCCU   ESTIMATED BY SCF 
       OPEN-SHELL           IOPEN          SPIN-ORBITAL [  0]   ***   
       ORBITALS             IORBTP         SEMICANONICAL[  1]   ***   
       PARALLEL             IPARAL         ON           [  1]   ***   
       PARA_INT             IPINTS         ON           [  1]   ***   
       PARA_PRINT           IPPRIN              0               ***   
       PERT_ORB             IPTORB         STANDARD     [  0]   ***   
       POINTS               IGRDFD              0               ***   
       PRINT                IPRNT               4               ***   
       PROPS                IPROPS             OFF      [  0]   ***   
       PROP_INTEGR          IINTYP         INTERNAL     [  0]   ***   
       PSI                  IPSI           OFF          [  0]   ***   
       QUARTIC              IQUART         OFF          [  0]   ***   
       RAMAN_INT            IRAMIN         OFF          [  0]   ***   
       RAMAN_ORB            IRAMRE         UNRELAXED    [  0]   ***   
       RDO                  IRDOFM             OFF      [  0]   ***   
       REFERENCE            IREFNC             ROHF     [  2]   ***   
       RELATIVIST           IRELAT         OFF          [  0]   ***   
       RELAX_DENS           IRDENS             OFF      [  0]   ***   
       RESET_FLAGS          IRESET             OFF      [  0]   ***   
       RESTART_CC           ICCRES         OFF          [  0]   ***   
       ROT_EVEC             ROTVEC              0               ***   
       SAVE_INTS            ISVINT              ON      [  1]   ***   
       SCALE_ON             ISTCRT              0               ***   
       SCF_CONV             ISCFCV          10D- 13             ***   
       SCF_DAMPING          IDAMP               0             x 10-3  
       SCF_EXPORDE          IRPPOR              6               ***   
       SCF_EXPSTAR          IRPPLS              5               ***   
       SCF_EXTRAPO          IRPP                ON      [  1]   ***   
       SCF_MAXCYC           ISCFCY            ***              cycles 
       SCF_NOSTOP           ISCFST         OFF          [  0]   ***   
       SCF_PRINT            ISCFPR              0               ***   
       SD_FIELD             IFINSD              0             x 10-6  
       SEQUENCE             ISEQUE         OFF          [  0]   ***   
       SOPERT               IPERSO         OFF          [  0]   ***   
       SPHERICAL            IDFGHI             ON       [  1]   ***   
       SPINORBIT            ISOCAL         OFF          [  0]   ***   
       SPINROTATIO          ISRCON         OFF          [  0]   ***   
       SPIN_FLIP            ISPFLP         OFF          [  0]   ***   
       SPIN_ORBIT           ISPORB         OFF          [  0]   ***   
       SPIN_SCAL            ISCSMP         OFF          [  0]   ***   
       SUBGROUP             ISUBGP         DEFAULT      [  0]   ***   
       SUBGRPAXIS           ISBXYZ         X            [  0]   ***   
       SYMMETRY             ISYM             ON         [  0]   ***   
       SYM_CHECK            ISYMCK         OVERRIDE     [  1]   ***   
       T3_EXTRAPOL          IT3EXT         ON           [  1]   ***   
       TAMP_SUM             IEVERY              5               ***   
       TESTSUITE            ITESTS         OFF          [  0]   ***   
       THERMOCH             ITHERM         OFF          [  0]   ***   
       TOL_CHOLESK          ITOLCH          10D-  4             ***   
       TRANGRAD             IRESRM         OFF          [  0]   ***   
       TRANS_INV            ITRAIN         USE          [  0]   ***   
       TREAT_PERT           ITREAT         SIMULTANEOUS [  0]   ***   
       UIJ_THRESHO          IUIJTH              1               ***   
       UNITS                IUNITS         BOHR         [  1]   ***   
       UNOS                 IUNOS          OFF          [  0]   ***   
       UPDATE_HESS          IHUPDT         ON           [  1]   ***   
       VIBPHASE             ISETPH         STANDARD     [  0]   ***   
       VIBRATION            IVIB              NO        [  0]   ***   
       VIB_ALGORIT          IGEALG         STANDARD     [  0]   ***   
       VNATORB              IVNORB         OFF          [  0]   ***   
       VTRAN                IVTRAN         FULL/PARTIAL [  0]   ***   
       XFIELD               IXEFLD              0             x 10-6  
       XFORM_TOL            IXFTOL          10D- 18             ***   
       YFIELD               IYEFLD              0             x 10-6  
       ZFIELD               IZEFLD              0             x 10-6  
    -------------------------------------------------------------------
   4 entries found in Z-matrix 
   Job Title : TITLE                                                                           
 Variable names read by FETCHZ
  1           
  2           
  3           
  4 R1        
  5           
  6           
  7 D         
  8 A90       
  9           
 10 R2        
 11 A90       
 12 D180      
 Atomic symbols read by FETCHZ
  1 Mg   
  2 Cl   
  3 X    
  4 Cl   
 Connectivity matrix read by FETCHZ
  1   0
  2   0
  3   0
  4   1
  5   0
  6   0
  7   1
  8   2
  9   0
 10   1
 11   3
 12   2
   Symbol A     not found in Z-matrix.
   There are  5 unique internal coordinates.
   Of these,  0 will be optimized.
   User supplied Z-matrix: 
--------------------------------------------------------------------------------
       SYMBOL    BOND      LENGTH    ANGLE     ANGLE     DIHED     ANGLE
                  TO      (ANGST)    WRT      (DEG)      WRT      (DEG)
--------------------------------------------------------------------------------
        Mg   
        Cl         1         R1   
        X          1         D          2        A90  
        Cl         1         R2         3        A90        2        D180 
                  *Initial values for internal coordinates* 
                      Name             Value
                        R1              4.1196029517
                        D               1.0000000000
                        A90            90.0000000000
                        R2              4.1196029517
                        D180          180.0000000000
--------------------------------------------------------------------------------
  1  MG        12    23.98504
  2  CL        17    34.96885
  3  X          0     0.00000
  4  CL        17    34.96885
   23.9850423000
   34.9688527210
    0.0000000000
   34.9688527210
 After translation to center of mass coordinates 
        0.000000000000    0.000000000000    0.000000000000
        0.000000000000    0.000000000000    4.119602951680
        1.000000000000    0.000000000000    0.000000000000
        0.000000000000    0.000000000000   -4.119602951680
  Inertia tensor (amu*bohr**2)
 1186.92178    0.00000    0.00000
    0.00000 1186.92178    0.00000
    0.00000    0.00000    0.00000
    Inertia tensor:
      ****************    0.000000000000    0.000000000000
        0.000000000000  ****************    0.000000000000
        0.000000000000    0.000000000000    0.000000000000
    Principal axis orientation for molecular system: 
        0.000000000000    0.000000000000    0.000000000000
        0.000000000000    0.000000000000   -4.119602951680
        0.707106781187    0.707106781187    0.000000000000
        0.000000000000    0.000000000000    4.119602951680
    Diagonalized inertia tensor:
      ****************    0.000000000000    0.000000000000
        0.000000000000  ****************    0.000000000000
        0.000000000000    0.000000000000    0.000000000000
    Eigenvectors of inertia tensor: 
        0.707106781187    0.707106781187    0.000000000000
       -0.707106781187    0.707106781187    0.000000000000
        0.000000000000    0.000000000000   -1.000000000000
 factor:   60.1997200000000     
   Rotational constants (in cm-1): 
          0.0507191972             0.0507191972
   Rotational constants (in MHz): 
       1520.5234912698          1520.5234912698
  @SYMMETRY-I, Handedness of inertial frame:-1.00000
  @SYMMETRY-I, Sense of inertial frame y-axis will be changed.
  @SYMMETRY-I, The symmetry group is 2-fold degenerate.
  @SYMMETRY-I, The molecule belongs to a point group with doubly degenerate representations.
  @SYMMETRY-I, The molecule is linear.
   Principal axis orientation for molecule:
        0.000000000000    0.000000000000    0.000000000000
        0.000000000000    0.000000000000   -4.119602951680
        0.707106781187   -0.707106781187    0.000000000000
        0.000000000000    0.000000000000    4.119602951680
   Reflection in plane  3 is a valid symmetry operation.
   Rotation about  3 is a valid symmetry operation 
   Reflection in plane  2 is a valid symmetry operation.
   Rotation about  2 is a valid symmetry operation 
   Reflection in plane  1 is a valid symmetry operation.
   Rotation about  1 is a valid symmetry operation 
   The molecule possesses an inversion center. 
  Symmetry bits:    7   7   1
********************************************************************************
   The full molecular point group is DXh .
   The largest Abelian subgroup of the full molecular point group is D2h .
   The computational point group is D2h .
********************************************************************************
--------------------------------------------------------------------------------
   Analysis of internal coordinates specified by Z-matrix 
--------------------------------------------------------------------------------
   *The nuclear repulsion energy is  134.114866524864254 a.u.
  *WARNING* Parameters R2    and R1    appear to be equivalent.
   *There are   2 degrees of freedom within the tot. symm. molecular subspace.
   *Z-matrix requests optimization of   0 coordinates.
   *The optimization is constrained.
   *The following   1 parameters can have non-zero 
    derivatives within the totally symmetric subspace:
             R2   [ 4]
   *The following   0 parameters are to be optimized:

   *The following coordinates must be varied in an  unconstrained optimization.
             R2   [ 4]
--------------------------------------------------------------------------------
 ----------------------------------------------------------------
 Z-matrix   Atomic            Coordinates (in bohr)
  Symbol    Number           X              Y              Z
 ----------------------------------------------------------------
     MG       12         0.00000000     0.00000000     0.00000000
     CL       17         0.00000000     0.00000000    -4.11960295
     X         0         0.70710678    -0.70710678     0.00000000
     CL       17         0.00000000     0.00000000     4.11960295
 ----------------------------------------------------------------
   Interatomic distance matrix (Angstroms) 
 
                 MG            CL            X             CL   
                [ 1]        [ 2]        [ 3]        [ 4]
  MG   [ 1]     0.00000
  CL   [ 2]     2.18000     0.00000
  X    [ 3]     0.52918     2.24331     0.00000
  CL   [ 4]     2.18000     4.36000     2.24331     0.00000
  Inertia tensor (amu*bohr**2)
 1186.92178    0.00000    0.00000
    0.00000 1186.92178    0.00000
    0.00000    0.00000    0.00000
   Rotational constants (in cm-1): 
          0.0507191972             0.0000000000
   Rotational constants (in MHz): 
       1520.5234912698             0.0000000000
  @GTFLGS-W, Keyword #GEOM not known and is ignored.
  @GTFLGS-W, Keyword #COORD not known and is ignored.
  @GTFLGS-W, Keyword #CC_PROG not known and is ignored.
  @GTFLGS-W, Keyword #FROZEN_CORE not known and is ignored.
  @GTFLGS-W, Keyword #CONTRACTION not known and is ignored.
  @GTFLGS-W, Keyword #EXCITE not known and is ignored.
  @GTFLGS-W, Keyword #ESTATE_CONV not known and is ignored.
  @GTFLGS-W, Keyword #ESTATE_SYM not known and is ignored.
  @GTFLGS-W, Keyword #SCF_DAMPING not known and is ignored.
  @GTFLGS-W, Keyword #OCCUPATION not known and is ignored.
  @GTFLGS-W, Keyword #OCCUPATION not known and is ignored.
  There are  116 basis functions.
 @GEOPT-W, Archive file not created for single-point calculation.
  @CHECKOUT-I, Total execution time (CPU/WALL):        0.49/       0.95 seconds.
--executable xjoda finished with status     0 in        1.06 seconds (walltime).
 --invoking executable--
/project1/nike/cfour_v2.00beta_May2019xnmol_noLABBASIS/bin/xvmol
Running with 1 threads/proc

********************************************************************************
                   INPUT FROM MOL FILE                                          
********************************************************************************
INTGRL        1    0    1    0    0    0    0    0    0
         *** CFOUR Program System (Release V0.1) *** 
TITLE
    2    3 X  Y   Z   0.10E-08              0    0
   9999.00      3.00
         12.00000000    1    3    1    1    1
MG#1   0.000000000000000   0.000000000000000   0.000000000000000
   14    5
   31438.3495550000       6.091231132599999E-004  0.000000000000000E+000
  0.000000000000000E+000  0.000000000000000E+000  0.000000000000000E+000
   4715.51533540000       4.706619646500000E-003  0.000000000000000E+000
  0.000000000000000E+000  0.000000000000000E+000  0.000000000000000E+000
   1073.16292470000       2.413582065700000E-002  0.000000000000000E+000
  0.000000000000000E+000  0.000000000000000E+000  0.000000000000000E+000
   303.572387680000       9.362895983400001E-002  0.000000000000000E+000
  0.000000000000000E+000  0.000000000000000E+000  0.000000000000000E+000
   98.6262510420000       0.266467420930000       0.000000000000000E+000
  0.000000000000000E+000  0.000000000000000E+000  0.000000000000000E+000
   34.9438084170000       0.478909299170000       0.000000000000000E+000
  0.000000000000000E+000  0.000000000000000E+000  0.000000000000000E+000
   12.8597851990000       0.336984902860000       0.000000000000000E+000
  0.000000000000000E+000  0.000000000000000E+000  0.000000000000000E+000
   64.8769130040000       0.000000000000000E+000  1.918088930700000E-002
  0.000000000000000E+000  0.000000000000000E+000  0.000000000000000E+000
   19.7255207770000       0.000000000000000E+000  9.091370439200000E-002
  0.000000000000000E+000  0.000000000000000E+000  0.000000000000000E+000
   2.89518043390000       0.000000000000000E+000 -0.395637561250000     
  0.000000000000000E+000  0.000000000000000E+000  0.000000000000000E+000
   1.19604547100000       0.000000000000000E+000  0.000000000000000E+000
   1.68276033730000       0.000000000000000E+000  0.000000000000000E+000
  0.543294511560000       0.000000000000000E+000  0.000000000000000E+000
  0.521410919540000       0.000000000000000E+000  0.000000000000000E+000
  0.100991040920000       0.000000000000000E+000  0.000000000000000E+000
  0.000000000000000E+000   1.00000000000000       0.000000000000000E+000
  3.686572808500000E-002  0.000000000000000E+000  0.000000000000000E+000
  0.000000000000000E+000  0.000000000000000E+000   1.00000000000000     
    8    4
   179.871896120000       5.379954901800000E-003  0.000000000000000E+000
  0.000000000000000E+000  0.000000000000000E+000
   42.1200693760000       3.931801409800000E-002  0.000000000000000E+000
  0.000000000000000E+000  0.000000000000000E+000
   13.1205030320000       0.157401294760000       0.000000000000000E+000
  0.000000000000000E+000  0.000000000000000E+000
   4.62575036090000       0.359190941280000       0.000000000000000E+000
  0.000000000000000E+000  0.000000000000000E+000
   1.66952110160000       0.455333793100000       0.000000000000000E+000
  0.000000000000000E+000  0.000000000000000E+000
  0.585510121050000       0.000000000000000E+000  0.219864329100000     
  0.000000000000000E+000  0.000000000000000E+000
  0.189147961950000       0.000000000000000E+000  0.000000000000000E+000
   1.00000000000000       0.000000000000000E+000
  5.376875518700000E-002  0.000000000000000E+000  0.000000000000000E+000
  0.000000000000000E+000   1.00000000000000     
    3    3
   3.44400000000000        1.00000000000000       0.000000000000000E+000
  0.000000000000000E+000
  0.290000000000000       0.000000000000000E+000   1.00000000000000     
  0.000000000000000E+000
  7.000000000000001E-002  0.000000000000000E+000  0.000000000000000E+000
   1.00000000000000     
         17.00000000    1    4    1    1    1    1
CL#2   0.000000000000000   0.000000000000000  -4.119602951680000
   14    5
   69507.9909450000       5.431489749700000E-004  0.000000000000000E+000
  0.000000000000000E+000  0.000000000000000E+000  0.000000000000000E+000
   10426.1568800000       4.199046396100000E-003  0.000000000000000E+000
  0.000000000000000E+000  0.000000000000000E+000  0.000000000000000E+000
   2373.23340610000       2.159214167900000E-002  0.000000000000000E+000
  0.000000000000000E+000  0.000000000000000E+000  0.000000000000000E+000
   671.564200710000       8.459885009400001E-002  0.000000000000000E+000
  0.000000000000000E+000  0.000000000000000E+000  0.000000000000000E+000
   218.419997900000       0.247572497240000       0.000000000000000E+000
  0.000000000000000E+000  0.000000000000000E+000  0.000000000000000E+000
   77.5722497140000       0.470169302280000       0.000000000000000E+000
  0.000000000000000E+000  0.000000000000000E+000  0.000000000000000E+000
   28.8888152770000       0.374363707160000       0.000000000000000E+000
  0.000000000000000E+000  0.000000000000000E+000  0.000000000000000E+000
   127.105271850000       0.000000000000000E+000  2.518216660300000E-002
  0.000000000000000E+000  0.000000000000000E+000  0.000000000000000E+000
   39.3395829610000       0.000000000000000E+000  0.107861124560000     
  0.000000000000000E+000  0.000000000000000E+000  0.000000000000000E+000
   7.67406799890000       0.000000000000000E+000 -0.274088215740000     
  0.000000000000000E+000  0.000000000000000E+000  0.000000000000000E+000
   3.87456276300000       0.000000000000000E+000  0.000000000000000E+000
   1.32138750140000       0.000000000000000E+000  0.000000000000000E+000
   1.83858325730000       0.000000000000000E+000  0.000000000000000E+000
  0.686369553680000       0.000000000000000E+000  0.000000000000000E+000
  0.502290575420000       0.000000000000000E+000  0.000000000000000E+000
  0.000000000000000E+000   1.00000000000000       0.000000000000000E+000
  0.179627234200000       0.000000000000000E+000  0.000000000000000E+000
  0.000000000000000E+000  0.000000000000000E+000   1.00000000000000     
    9    5
   666.504232840000       2.363266383600000E-003  0.000000000000000E+000
  0.000000000000000E+000  0.000000000000000E+000  0.000000000000000E+000
   157.642416900000       1.887930037400000E-002  0.000000000000000E+000
  0.000000000000000E+000  0.000000000000000E+000  0.000000000000000E+000
   50.2625209780000       8.720634127300000E-002  0.000000000000000E+000
  0.000000000000000E+000  0.000000000000000E+000  0.000000000000000E+000
   18.5360781050000       0.252856129700000       0.000000000000000E+000
  0.000000000000000E+000  0.000000000000000E+000  0.000000000000000E+000
   7.29405327770000       0.435071548200000       0.000000000000000E+000
  0.000000000000000E+000  0.000000000000000E+000  0.000000000000000E+000
   2.94332489950000       0.000000000000000E+000  0.350265131650000     
  0.000000000000000E+000  0.000000000000000E+000  0.000000000000000E+000
   1.04049708180000       0.000000000000000E+000  0.000000000000000E+000
   1.00000000000000       0.000000000000000E+000  0.000000000000000E+000
  0.384564150800000       0.000000000000000E+000  0.000000000000000E+000
  0.000000000000000E+000   1.00000000000000       0.000000000000000E+000
  0.130696427320000       0.000000000000000E+000  0.000000000000000E+000
  0.000000000000000E+000  0.000000000000000E+000   1.00000000000000     
    3    3
  0.339000000000000        1.00000000000000       0.000000000000000E+000
  0.000000000000000E+000
   4.61000000000000       0.000000000000000E+000   1.00000000000000     
  0.000000000000000E+000
   1.01100000000000       0.000000000000000E+000  0.000000000000000E+000
   1.00000000000000     
    1    1
  0.706000000000000        1.00000000000000     
FINISH
                                                                                
********************************************************************************

ONE- AND TWO-ELECTRON INTEGRALS OVER SYMMETRY-ADAPTED AOS ARE CALCULATED.


    BASIS FUNCTION NOT NORMALIZED:
    CENTER (AS ORDERED IN MOL FILE): ?
    ANGULAR MOMENTUM TYPE:           S
    OFFSET WITHIN ANGULAR MOMENTUM:  1
    <CHI|CHI>:                       1.1094291478

    BASIS FUNCTION NOT NORMALIZED:
    CENTER (AS ORDERED IN MOL FILE): ?
    ANGULAR MOMENTUM TYPE:           S
    OFFSET WITHIN ANGULAR MOMENTUM:  2
    <CHI|CHI>:                       0.1246817846

    BASIS FUNCTION NOT NORMALIZED:
    CENTER (AS ORDERED IN MOL FILE): ?
    ANGULAR MOMENTUM TYPE:           S
    OFFSET WITHIN ANGULAR MOMENTUM:  3
    <CHI|CHI>:                       4.6695378414

    BASIS FUNCTION NOT NORMALIZED:
    CENTER (AS ORDERED IN MOL FILE): ?
    ANGULAR MOMENTUM TYPE:           P
    OFFSET WITHIN ANGULAR MOMENTUM:  1
    <CHI|CHI>:                       0.7497556981

    BASIS FUNCTION NOT NORMALIZED:
    CENTER (AS ORDERED IN MOL FILE): ?
    ANGULAR MOMENTUM TYPE:           P
    OFFSET WITHIN ANGULAR MOMENTUM:  2
    <CHI|CHI>:                       0.0483403232

    BASIS FUNCTION NOT NORMALIZED:
    CENTER (AS ORDERED IN MOL FILE): ?
    ANGULAR MOMENTUM TYPE:           S
    OFFSET WITHIN ANGULAR MOMENTUM:  1
    <CHI|CHI>:                       1.1141468221

    BASIS FUNCTION NOT NORMALIZED:
    CENTER (AS ORDERED IN MOL FILE): ?
    ANGULAR MOMENTUM TYPE:           S
    OFFSET WITHIN ANGULAR MOMENTUM:  2
    <CHI|CHI>:                       0.0497181099

    BASIS FUNCTION NOT NORMALIZED:
    CENTER (AS ORDERED IN MOL FILE): ?
    ANGULAR MOMENTUM TYPE:           S
    OFFSET WITHIN ANGULAR MOMENTUM:  3
    <CHI|CHI>:                       3.8554163295

    BASIS FUNCTION NOT NORMALIZED:
    CENTER (AS ORDERED IN MOL FILE): ?
    ANGULAR MOMENTUM TYPE:           P
    OFFSET WITHIN ANGULAR MOMENTUM:  1
    <CHI|CHI>:                       0.4975889306

    BASIS FUNCTION NOT NORMALIZED:
    CENTER (AS ORDERED IN MOL FILE): ?
    ANGULAR MOMENTUM TYPE:           P
    OFFSET WITHIN ANGULAR MOMENTUM:  2
    <CHI|CHI>:                       0.1226856624
CARTESIAN GAUSSIANS ARE USED.

2 TYPES OF ATOMS
3 SYMMETRY OPERATIONS

REFLECTION IN THE YZ-PLANE
REFLECTION IN THE XZ-PLANE
REFLECTION IN THE XY-PLANE

INTEGRALS LESS THAN 1e-14 ARE NEGLECTED.

ATOMIC TYPE NUMBER 1:
---------------------

    NUCLEAR CHARGE:                       12
    NUMBER OF SYMMETRY INDEPENDENT ATOMS: 1
    HIGHEST ORBITAL TYPE:                 D

    1 GROUPS OF CGTOS OF S TYPE
    1 GROUPS OF CGTOS OF P TYPE
    1 GROUPS OF CGTOS OF D TYPE

    NUCLEAR COORDINATES (IN A.U.) ARE:

    MG#1   0.000000000000000   0.000000000000000   0.000000000000000

ATOMIC TYPE NUMBER 2:
---------------------

    NUCLEAR CHARGE:                       17
    NUMBER OF SYMMETRY INDEPENDENT ATOMS: 1
    HIGHEST ORBITAL TYPE:                 F

    1 GROUPS OF CGTOS OF S TYPE
    1 GROUPS OF CGTOS OF P TYPE
    1 GROUPS OF CGTOS OF D TYPE
    1 GROUPS OF CGTOS OF F TYPE

    NUCLEAR COORDINATES (IN A.U.) ARE:

    CL#2   0.000000000000000   0.000000000000000  -4.119602951680000

INTERNUCLEAR DISTANCES (A):

    FOR ATOM MG#1 (COORDINATES:   0.00000   0.00000   0.00000)

    CL#2 1 DISTANCE IS   2.18000

    FOR ATOM CL#2 (COORDINATES:   0.00000   0.00000  -4.11960)

    CL#2 5 DISTANCE IS   4.36000

GROUP MULTIPLICATION TABLE:

    1 2 3 4 5 6 7 8
    2 1 4 3 6 5 8 7
    3 4 1 2 7 8 5 6
    4 3 2 1 8 7 6 5
    5 6 7 8 1 2 3 4
    6 5 8 7 2 1 4 3
    7 8 5 6 3 4 1 2
    8 7 6 5 4 3 2 1

GAUSSIAN BASIS INFORMATION:

ATOM                EXPONENT       COEFFICIENTS

MG#1  1  S   
                  1   31438.349555   0.9731061   0.0000000   0.0000000   0.0000000   0.0000000
                  2    4715.515335   1.8122424   0.0000000   0.0000000   0.0000000   0.0000000
                  3    1073.162925   3.0621159   0.0000000   0.0000000   0.0000000   0.0000000
                  4     303.572388   4.6075197   0.0000000   0.0000000   0.0000000   0.0000000
                  5      98.626251   5.6428541   0.0000000   0.0000000   0.0000000   0.0000000
                  6      34.943808   4.6573755   0.0000000   0.0000000   0.0000000   0.0000000
                  7      12.859785   1.5484459   0.0000000   0.0000000   0.0000000   0.0000000
                  8      64.876913   0.0000000   0.8850034   0.0000000   0.0000000   0.0000000
                  9      19.725521   0.0000000   1.7175496   0.0000000   0.0000000   0.0000000
                 10       2.895180   0.0000000  -1.7724044   0.0000000   0.0000000   0.0000000
                 11       1.196045   0.0000000   0.0000000   0.6347551   0.0000000   0.0000000
                 12       0.543295   0.0000000   0.0000000   0.1088253   0.0000000   0.0000000
                 13       0.100991   0.0000000   0.0000000   0.0000000   0.1276798   0.0000000
                 14       0.036866   0.0000000   0.0000000   0.0000000   0.0000000   0.0599622

MG#1  1  X   
                 15     179.871896   5.8339537   0.0000000   0.0000000   0.0000000
                 16      42.120069   6.9451739   0.0000000   0.0000000   0.0000000
                 17      13.120503   6.4703326   0.0000000   0.0000000   0.0000000
                 18       4.625750   4.0112831   0.0000000   0.0000000   0.0000000
                 19       1.669521   1.4224925   0.0000000   0.0000000   0.0000000
                 20       0.585510   0.0000000   0.7300592   0.0000000   0.0000000
                 21       0.189148   0.0000000   0.0000000   0.1778043   0.0000000
                 22       0.053769   0.0000000   0.0000000   0.0000000   0.0369065

MG#1  1  Y   
                 23     179.871896   5.8339537   0.0000000   0.0000000   0.0000000
                 24      42.120069   6.9451739   0.0000000   0.0000000   0.0000000
                 25      13.120503   6.4703326   0.0000000   0.0000000   0.0000000
                 26       4.625750   4.0112831   0.0000000   0.0000000   0.0000000
                 27       1.669521   1.4224925   0.0000000   0.0000000   0.0000000
                 28       0.585510   0.0000000   0.7300592   0.0000000   0.0000000
                 29       0.189148   0.0000000   0.0000000   0.1778043   0.0000000
                 30       0.053769   0.0000000   0.0000000   0.0000000   0.0369065

MG#1  1  Z   
                 31     179.871896   5.8339537   0.0000000   0.0000000   0.0000000
                 32      42.120069   6.9451739   0.0000000   0.0000000   0.0000000
                 33      13.120503   6.4703326   0.0000000   0.0000000   0.0000000
                 34       4.625750   4.0112831   0.0000000   0.0000000   0.0000000
                 35       1.669521   1.4224925   0.0000000   0.0000000   0.0000000
                 36       0.585510   0.0000000   0.7300592   0.0000000   0.0000000
                 37       0.189148   0.0000000   0.0000000   0.1778043   0.0000000
                 38       0.053769   0.0000000   0.0000000   0.0000000   0.0369065

MG#1  1  XX  
                 39       3.444000  24.8216463   0.0000000   0.0000000
                 40       0.290000   0.0000000   0.3267131   0.0000000
                 41       0.070000   0.0000000   0.0000000   0.0271576

MG#1  1  XY  
                 42       3.444000  24.8216463   0.0000000   0.0000000
                 43       0.290000   0.0000000   0.3267131   0.0000000
                 44       0.070000   0.0000000   0.0000000   0.0271576

MG#1  1  XZ  
                 45       3.444000  24.8216463   0.0000000   0.0000000
                 46       0.290000   0.0000000   0.3267131   0.0000000
                 47       0.070000   0.0000000   0.0000000   0.0271576

MG#1  1  YY  
                 48       3.444000  24.8216463   0.0000000   0.0000000
                 49       0.290000   0.0000000   0.3267131   0.0000000
                 50       0.070000   0.0000000   0.0000000   0.0271576

MG#1  1  YZ  
                 51       3.444000  24.8216463   0.0000000   0.0000000
                 52       0.290000   0.0000000   0.3267131   0.0000000
                 53       0.070000   0.0000000   0.0000000   0.0271576

MG#1  1  ZZ  
                 54       3.444000  24.8216463   0.0000000   0.0000000
                 55       0.290000   0.0000000   0.3267131   0.0000000
                 56       0.070000   0.0000000   0.0000000   0.0271576

CL#2  1  S   
                 57   69507.990945   1.5699430   0.0000000   0.0000000   0.0000000   0.0000000
                 58   10426.156880   2.9253831   0.0000000   0.0000000   0.0000000   0.0000000
                 59    2373.233406   4.9572399   0.0000000   0.0000000   0.0000000   0.0000000
                 60     671.564201   7.5356200   0.0000000   0.0000000   0.0000000   0.0000000
                 61     218.419998   9.4975278   0.0000000   0.0000000   0.0000000   0.0000000
                 62      77.572250   8.2979906   0.0000000   0.0000000   0.0000000   0.0000000
                 63      28.888815   3.1497778   0.0000000   0.0000000   0.0000000   0.0000000
                 64     127.105272   0.0000000   3.0469726   0.0000000   0.0000000   0.0000000
                 65      39.339583   0.0000000   5.4155185   0.0000000   0.0000000   0.0000000
                 66       7.674068   0.0000000  -4.0393584   0.0000000   0.0000000   0.0000000
                 67       3.874563   0.0000000   0.0000000   1.3245601   0.0000000   0.0000000
                 68       1.838583   0.0000000   0.0000000   0.3933643   0.0000000   0.0000000
                 69       0.502291   0.0000000   0.0000000   0.0000000   0.4252324   0.0000000
                 70       0.179627   0.0000000   0.0000000   0.0000000   0.0000000   0.1966479

CL#2  5  S   
                 71   69507.990945   1.5699430   0.0000000   0.0000000   0.0000000   0.0000000
                 72   10426.156880   2.9253831   0.0000000   0.0000000   0.0000000   0.0000000
                 73    2373.233406   4.9572399   0.0000000   0.0000000   0.0000000   0.0000000
                 74     671.564201   7.5356200   0.0000000   0.0000000   0.0000000   0.0000000
                 75     218.419998   9.4975278   0.0000000   0.0000000   0.0000000   0.0000000
                 76      77.572250   8.2979906   0.0000000   0.0000000   0.0000000   0.0000000
                 77      28.888815   3.1497778   0.0000000   0.0000000   0.0000000   0.0000000
                 78     127.105272   0.0000000   3.0469726   0.0000000   0.0000000   0.0000000
                 79      39.339583   0.0000000   5.4155185   0.0000000   0.0000000   0.0000000
                 80       7.674068   0.0000000  -4.0393584   0.0000000   0.0000000   0.0000000
                 81       3.874563   0.0000000   0.0000000   1.3245601   0.0000000   0.0000000
                 82       1.838583   0.0000000   0.0000000   0.3933643   0.0000000   0.0000000
                 83       0.502291   0.0000000   0.0000000   0.0000000   0.4252324   0.0000000
                 84       0.179627   0.0000000   0.0000000   0.0000000   0.0000000   0.1966479

CL#2  1  X   
                 85     666.504233  16.1722725   0.0000000   0.0000000   0.0000000   0.0000000
                 86     157.642417  21.3099281   0.0000000   0.0000000   0.0000000   0.0000000
                 87      50.262521  23.5834932   0.0000000   0.0000000   0.0000000   0.0000000
                 88      18.536078  19.6517184   0.0000000   0.0000000   0.0000000   0.0000000
                 89       7.294053  10.5384461   0.0000000   0.0000000   0.0000000   0.0000000
                 90       2.943325   0.0000000   5.4952549   0.0000000   0.0000000   0.0000000
                 91       1.040497   0.0000000   0.0000000   1.4979288   0.0000000   0.0000000
                 92       0.384564   0.0000000   0.0000000   0.0000000   0.4316692   0.0000000
                 93       0.130696   0.0000000   0.0000000   0.0000000   0.0000000   0.1120133

CL#2  5  X   
                 94     666.504233  16.1722725   0.0000000   0.0000000   0.0000000   0.0000000
                 95     157.642417  21.3099281   0.0000000   0.0000000   0.0000000   0.0000000
                 96      50.262521  23.5834932   0.0000000   0.0000000   0.0000000   0.0000000
                 97      18.536078  19.6517184   0.0000000   0.0000000   0.0000000   0.0000000
                 98       7.294053  10.5384461   0.0000000   0.0000000   0.0000000   0.0000000
                 99       2.943325   0.0000000   5.4952549   0.0000000   0.0000000   0.0000000
                100       1.040497   0.0000000   0.0000000   1.4979288   0.0000000   0.0000000
                101       0.384564   0.0000000   0.0000000   0.0000000   0.4316692   0.0000000
                102       0.130696   0.0000000   0.0000000   0.0000000   0.0000000   0.1120133

CL#2  1  Y   
                103     666.504233  16.1722725   0.0000000   0.0000000   0.0000000   0.0000000
                104     157.642417  21.3099281   0.0000000   0.0000000   0.0000000   0.0000000
                105      50.262521  23.5834932   0.0000000   0.0000000   0.0000000   0.0000000
                106      18.536078  19.6517184   0.0000000   0.0000000   0.0000000   0.0000000
                107       7.294053  10.5384461   0.0000000   0.0000000   0.0000000   0.0000000
                108       2.943325   0.0000000   5.4952549   0.0000000   0.0000000   0.0000000
                109       1.040497   0.0000000   0.0000000   1.4979288   0.0000000   0.0000000
                110       0.384564   0.0000000   0.0000000   0.0000000   0.4316692   0.0000000
                111       0.130696   0.0000000   0.0000000   0.0000000   0.0000000   0.1120133

CL#2  5  Y   
                112     666.504233  16.1722725   0.0000000   0.0000000   0.0000000   0.0000000
                113     157.642417  21.3099281   0.0000000   0.0000000   0.0000000   0.0000000
                114      50.262521  23.5834932   0.0000000   0.0000000   0.0000000   0.0000000
                115      18.536078  19.6517184   0.0000000   0.0000000   0.0000000   0.0000000
                116       7.294053  10.5384461   0.0000000   0.0000000   0.0000000   0.0000000
                117       2.943325   0.0000000   5.4952549   0.0000000   0.0000000   0.0000000
                118       1.040497   0.0000000   0.0000000   1.4979288   0.0000000   0.0000000
                119       0.384564   0.0000000   0.0000000   0.0000000   0.4316692   0.0000000
                120       0.130696   0.0000000   0.0000000   0.0000000   0.0000000   0.1120133

CL#2  1  Z   
                121     666.504233  16.1722725   0.0000000   0.0000000   0.0000000   0.0000000
                122     157.642417  21.3099281   0.0000000   0.0000000   0.0000000   0.0000000
                123      50.262521  23.5834932   0.0000000   0.0000000   0.0000000   0.0000000
                124      18.536078  19.6517184   0.0000000   0.0000000   0.0000000   0.0000000
                125       7.294053  10.5384461   0.0000000   0.0000000   0.0000000   0.0000000
                126       2.943325   0.0000000   5.4952549   0.0000000   0.0000000   0.0000000
                127       1.040497   0.0000000   0.0000000   1.4979288   0.0000000   0.0000000
                128       0.384564   0.0000000   0.0000000   0.0000000   0.4316692   0.0000000
                129       0.130696   0.0000000   0.0000000   0.0000000   0.0000000   0.1120133

CL#2  5  Z   
                130     666.504233  16.1722725   0.0000000   0.0000000   0.0000000   0.0000000
                131     157.642417  21.3099281   0.0000000   0.0000000   0.0000000   0.0000000
                132      50.262521  23.5834932   0.0000000   0.0000000   0.0000000   0.0000000
                133      18.536078  19.6517184   0.0000000   0.0000000   0.0000000   0.0000000
                134       7.294053  10.5384461   0.0000000   0.0000000   0.0000000   0.0000000
                135       2.943325   0.0000000   5.4952549   0.0000000   0.0000000   0.0000000
                136       1.040497   0.0000000   0.0000000   1.4979288   0.0000000   0.0000000
                137       0.384564   0.0000000   0.0000000   0.0000000   0.4316692   0.0000000
                138       0.130696   0.0000000   0.0000000   0.0000000   0.0000000   0.1120133

CL#2  1  XX  
                139       0.339000   0.4293580   0.0000000   0.0000000
                140       4.610000   0.0000000  41.3472570   0.0000000
                141       1.011000   0.0000000   0.0000000   2.9059264

CL#2  5  XX  
                142       0.339000   0.4293580   0.0000000   0.0000000
                143       4.610000   0.0000000  41.3472570   0.0000000
                144       1.011000   0.0000000   0.0000000   2.9059264

CL#2  1  XY  
                145       0.339000   0.4293580   0.0000000   0.0000000
                146       4.610000   0.0000000  41.3472570   0.0000000
                147       1.011000   0.0000000   0.0000000   2.9059264

CL#2  5  XY  
                148       0.339000   0.4293580   0.0000000   0.0000000
                149       4.610000   0.0000000  41.3472570   0.0000000
                150       1.011000   0.0000000   0.0000000   2.9059264

CL#2  1  XZ  
                151       0.339000   0.4293580   0.0000000   0.0000000
                152       4.610000   0.0000000  41.3472570   0.0000000
                153       1.011000   0.0000000   0.0000000   2.9059264

CL#2  5  XZ  
                154       0.339000   0.4293580   0.0000000   0.0000000
                155       4.610000   0.0000000  41.3472570   0.0000000
                156       1.011000   0.0000000   0.0000000   2.9059264

CL#2  1  YY  
                157       0.339000   0.4293580   0.0000000   0.0000000
                158       4.610000   0.0000000  41.3472570   0.0000000
                159       1.011000   0.0000000   0.0000000   2.9059264

CL#2  5  YY  
                160       0.339000   0.4293580   0.0000000   0.0000000
                161       4.610000   0.0000000  41.3472570   0.0000000
                162       1.011000   0.0000000   0.0000000   2.9059264

CL#2  1  YZ  
                163       0.339000   0.4293580   0.0000000   0.0000000
                164       4.610000   0.0000000  41.3472570   0.0000000
                165       1.011000   0.0000000   0.0000000   2.9059264

CL#2  5  YZ  
                166       0.339000   0.4293580   0.0000000   0.0000000
                167       4.610000   0.0000000  41.3472570   0.0000000
                168       1.011000   0.0000000   0.0000000   2.9059264

CL#2  1  ZZ  
                169       0.339000   0.4293580   0.0000000   0.0000000
                170       4.610000   0.0000000  41.3472570   0.0000000
                171       1.011000   0.0000000   0.0000000   2.9059264

CL#2  5  ZZ  
                172       0.339000   0.4293580   0.0000000   0.0000000
                173       4.610000   0.0000000  41.3472570   0.0000000
                174       1.011000   0.0000000   0.0000000   2.9059264

CL#2  1  F300
                175       0.706000   2.6050176

CL#2  5  F300
                176       0.706000   2.6050176

CL#2  1  F210
                177       0.706000   2.6050176

CL#2  5  F210
                178       0.706000   2.6050176

CL#2  1  F201
                179       0.706000   2.6050176

CL#2  5  F201
                180       0.706000   2.6050176

CL#2  1  F120
                181       0.706000   2.6050176

CL#2  5  F120
                182       0.706000   2.6050176

CL#2  1  F111
                183       0.706000   2.6050176

CL#2  5  F111
                184       0.706000   2.6050176

CL#2  1  F102
                185       0.706000   2.6050176

CL#2  5  F102
                186       0.706000   2.6050176

CL#2  1  F030
                187       0.706000   2.6050176

CL#2  5  F030
                188       0.706000   2.6050176

CL#2  1  F021
                189       0.706000   2.6050176

CL#2  5  F021
                190       0.706000   2.6050176

CL#2  1  F012
                191       0.706000   2.6050176

CL#2  5  F012
                192       0.706000   2.6050176

CL#2  1  F003
                193       0.706000   2.6050176

CL#2  5  F003
                194       0.706000   2.6050176

SYMMETRY TRANSFORMATION INTO 116 SYMMETRY-ADAPTED BASIS FUNCTIONS

    IRREDUCIBLE REPRESENTATION NUMBER 1

    1    1 MG#1 S      1   1.0
    2    2 MG#1 S      2   1.0
    3    3 MG#1 S      3   1.0
    4    4 MG#1 S      4   1.0
    5    5 MG#1 S      5   1.0
    6    6 MG#1 XX    18  -1.0  27  -1.0  33   2.0
    7    7 MG#1 XX    19  -1.0  28  -1.0  34   2.0
    8    8 MG#1 XX    20  -1.0  29  -1.0  35   2.0
    9    9 MG#1 YY    18   1.0  27  -1.0
   10   10 MG#1 YY    19   1.0  28  -1.0
   11   11 MG#1 YY    20   1.0  29  -1.0
   12   12 MG#1 ZZ    36   1.0  37   1.0
   13   13 MG#1 ZZ    38   1.0  39   1.0
   14   14 MG#1 ZZ    40   1.0  41   1.0
   15   15 CL#2 S     42   1.0  43   1.0
   16   16 CL#2 S     44   1.0  45   1.0
   17   17 CL#2 S     66   1.0  67  -1.0
   18   18 CL#2 S     68   1.0  69  -1.0
   19   19 CL#2 S     70   1.0  71  -1.0
   20   20 CL#2 Z     72   1.0  73  -1.0
   21   21 CL#2 Z     74   1.0  75  -1.0
   22   22 CL#2 Z     76  -1.0  77  -1.0  94  -1.0  95  -1.0 106   2.0 107   2.0
   23   23 CL#2 Z     78  -1.0  79  -1.0  96  -1.0  97  -1.0 108   2.0 109   2.0
   24   24 CL#2 Z     80  -1.0  81  -1.0  98  -1.0  99  -1.0 110   2.0 111   2.0
   25   25 CL#2 XX    76   1.0  77   1.0  94  -1.0  95  -1.0
   26   26 CL#2 XX    78   1.0  79   1.0  96  -1.0  97  -1.0
   27   27 CL#2 XX    80   1.0  81   1.0  98  -1.0  99  -1.0
   28   28 CL#2 YY   116  -3.0 117   3.0 126  -3.0 127   3.0 130   2.0 131  -2.0
   29   29 CL#2 YY   116   1.0 117  -1.0 126  -1.0 127   1.0
   30   30 CL#2 YY     6   1.0
   31   31 CL#2 ZZ     7   1.0
   32   32 CL#2 ZZ     8   1.0
   33   33 CL#2 ZZ     9   1.0
   34   34 CL#2 F201  46   1.0  47   1.0
   35   35 CL#2 F021  48   1.0  49   1.0
   36   36 CL#2 F003  50   1.0  51   1.0

    IRREDUCIBLE REPRESENTATION NUMBER 2

   37    1 MG#1 X     52   1.0  53   1.0
   38    2 MG#1 X     54   1.0  55   1.0
   39    3 MG#1 X     88   1.0  89  -1.0
   40    4 MG#1 X     90   1.0  91  -1.0
   41    5 CL#2 X     92   1.0  93  -1.0
   42    6 CL#2 X    112  -1.0 113  -1.0 118  -1.0 119  -1.0 122   4.0 123   4.0
   43    7 CL#2 X    112   1.0 113   1.0 118  -3.0 119  -3.0
   44    8 CL#2 X     10   1.0
   45    9 CL#2 X     11   1.0
   46   10 CL#2 XZ    12   1.0
   47   11 CL#2 XZ    13   1.0
   48   12 CL#2 XZ    56   1.0  57   1.0
   49   13 CL#2 F300  58   1.0  59   1.0
   50   14 CL#2 F120  60   1.0  61   1.0
   51   15 CL#2 F102  62   1.0  63   1.0

    IRREDUCIBLE REPRESENTATION NUMBER 3

   52    1 MG#1 Y     64   1.0  65   1.0
   53    2 MG#1 Y    100   1.0 101  -1.0
   54    3 MG#1 Y    102   1.0 103  -1.0
   55    4 MG#1 Y    104   1.0 105  -1.0
   56    5 CL#2 Y    114  -1.0 115  -1.0 124  -1.0 125  -1.0 128   4.0 129   4.0
   57    6 CL#2 Y    114   3.0 115   3.0 124  -1.0 125  -1.0
   58    7 CL#2 Y     21   1.0
   59    8 CL#2 Y     22   1.0
   60    9 CL#2 Y     23   1.0
   61   10 CL#2 YZ    82   1.0  83   1.0
   62   11 CL#2 YZ    84   1.0  85   1.0
   63   12 CL#2 YZ    86   1.0  87   1.0
   64   13 CL#2 F210 120   1.0 121  -1.0
   65   14 CL#2 F030  14   1.0
   66   15 CL#2 F012  15   1.0

    IRREDUCIBLE REPRESENTATION NUMBER 4

   67    1 MG#1 XY    16   1.0
   68    2 MG#1 XY    17   1.0
   69    3 MG#1 XY    36   1.0  37  -1.0
   70    4 CL#2 XY    38   1.0  39  -1.0
   71    5 CL#2 XY    40   1.0  41  -1.0
   72    6 CL#2 XY    42   1.0  43  -1.0
   73    7 CL#2 F111  44   1.0  45  -1.0

    IRREDUCIBLE REPRESENTATION NUMBER 5

   74    1 MG#1 Z     66   1.0  67   1.0
   75    2 MG#1 Z     68   1.0  69   1.0
   76    3 MG#1 Z     70   1.0  71   1.0
   77    4 MG#1 Z     72   1.0  73   1.0
   78    5 CL#2 S     74   1.0  75   1.0
   79    6 CL#2 S     76  -1.0  77   1.0  94  -1.0  95   1.0 106   2.0 107  -2.0
   80    7 CL#2 S     78  -1.0  79   1.0  96  -1.0  97   1.0 108   2.0 109  -2.0
   81    8 CL#2 S     80  -1.0  81   1.0  98  -1.0  99   1.0 110   2.0 111  -2.0
   82    9 CL#2 S     76   1.0  77  -1.0  94  -1.0  95   1.0
   83   10 CL#2 Z     78   1.0  79  -1.0  96  -1.0  97   1.0
   84   11 CL#2 Z     80   1.0  81  -1.0  98  -1.0  99   1.0
   85   12 CL#2 Z    116  -3.0 117  -3.0 126  -3.0 127  -3.0 130   2.0 131   2.0
   86   13 CL#2 Z    116   1.0 117   1.0 126  -1.0 127  -1.0
   87   14 CL#2 Z     24   1.0
   88   15 CL#2 XX    25   1.0
   89   16 CL#2 XX    26   1.0
   90   17 CL#2 XX    46   1.0  47  -1.0
   91   18 CL#2 YY    48   1.0  49  -1.0
   92   19 CL#2 YY    50   1.0  51  -1.0
   93   20 CL#2 YY    52   1.0  53  -1.0
   94   21 CL#2 ZZ    54   1.0  55  -1.0
   95   22 CL#2 ZZ    88   1.0  89   1.0
   96   23 CL#2 ZZ    90   1.0  91   1.0
   97   24 CL#2 F201  92   1.0  93   1.0
   98   25 CL#2 F021 112  -1.0 113   1.0 118  -1.0 119   1.0 122   4.0 123  -4.0
   99   26 CL#2 F003 112   1.0 113  -1.0 118  -3.0 119   3.0

    IRREDUCIBLE REPRESENTATION NUMBER 6

  100    1 MG#1 XZ    30   1.0
  101    2 MG#1 XZ    31   1.0
  102    3 MG#1 XZ    32   1.0
  103    4 CL#2 X     56   1.0  57  -1.0
  104    5 CL#2 X     58   1.0  59  -1.0
  105    6 CL#2 X     60   1.0  61  -1.0
  106    7 CL#2 X     62   1.0  63  -1.0
  107    8 CL#2 X     64   1.0  65  -1.0
  108    9 CL#2 XZ   100   1.0 101   1.0
  109   10 CL#2 XZ   102   1.0 103   1.0
  110   11 CL#2 XZ   104   1.0 105   1.0
  111   12 CL#2 F300 114  -1.0 115   1.0 124  -1.0 125   1.0 128   4.0 129  -4.0
  112   13 CL#2 F120 114   3.0 115  -3.0 124  -1.0 125   1.0
  113   14 CL#2 F102  82   1.0  83  -1.0

    IRREDUCIBLE REPRESENTATION NUMBER 7

  114    1 MG#1 YZ    84   1.0  85  -1.0
  115    2 MG#1 YZ    86   1.0  87  -1.0
  116    3 MG#1 YZ   120   1.0 121   1.0
  117    4 CL#2 Y   
  118    5 CL#2 Y   
  119    6 CL#2 Y   
  120    7 CL#2 Y   
  121    8 CL#2 Y   
  122    9 CL#2 YZ  
  123   10 CL#2 YZ  
  124   11 CL#2 YZ  
  125   12 CL#2 F210
  126   13 CL#2 F030
  127   14 CL#2 F012

    IRREDUCIBLE REPRESENTATION NUMBER 8

  128    1 CL#2 XY  
  129    2 CL#2 XY  
  130    3 CL#2 XY  
  131    4 CL#2 F111

NUCLEAR REPULSION ENERGY:  134.1148665249 A.U.

One-electron integrals took 0.022496 seconds

  @TWOEL-I,      85317 INTEGRALS OF SYMMETRY TYPE  I I I I
  @TWOEL-I,     675451 INTEGRALS OF SYMMETRY TYPE  I J I J
  @TWOEL-I,     384502 INTEGRALS OF SYMMETRY TYPE  I I J J
  @TWOEL-I,    1313296 INTEGRALS OF SYMMETRY TYPE  I J K L
  @TWOEL-I, TOTAL NUMBER OF 2-E INTEGRALS    2458566

Two-electron integrals took 8.619114 seconds

Nuclear repulsion energy: 134.114866524864
--executable xvmol finished with status     0 in        9.80 seconds (walltime).
 --invoking executable--
/project1/nike/cfour_v2.00beta_May2019xnmol_noLABBASIS/bin/xvmol2ja
--executable xvmol2ja finished with status     0 in        0.09 seconds (walltime).
 --invoking executable--
/project1/nike/cfour_v2.00beta_May2019xnmol_noLABBASIS/bin/xvscf
  There are  116 functions in the AO basis.

  There are 8 irreducible representations.

       Irrep        # of functions
         1                 29
         2                 14
         3                 14
         4                  7
         5                 22
         6                 13
         7                 13
         8                  4


  Parameters for SCF calculation: 
        SCF reference function: ROHF  
  Maximum number of iterations: ****
     Full symmetry point group: DXh 
     Computational point group: D2h 
        Initial density matrix: CORE                   
     SCF convergence tolerance: 10**(-13)
  DIIS convergence acceleration:  ON
          Latest start for DIIS:   5
                     DIIS order:   6

  Memory information:     594813 words required.
  Fock matrices are constructed from AO integral file.
 @GETMEM-I,  Allocated       4 MB of main memory.
  Initialization and symmetry analysis required      0.003 seconds.

  @INITGES-I, Occupancies from core Hamiltonian:

          Alpha population by irrep:   7    3    3    1    5    2    2    0
           Beta population by irrep:   7    3    3    0    5    2    2    0


 total no. of electrons in initial guess :  0.000000000000000E+000
 total no. of electrons in initial guess :  0.000000000000000E+000
  --------------------------------------------------------------------
  Iteration         Total Energy            Largest Density Difference
  --------------------------------------------------------------------
       0           134.114866524864254              0.0000000000D+00
   current occupation vector 
     7  3  3  1  5  2  2  0
     7  3  3  0  5  2  2  0
  processed                  85317  ao basis integrals from 
                   143  buffers.
  processed                 384502  ao basis integrals from 
                   641  buffers.
  processed                 675451  ao basis integrals from 
                  1126  buffers.
       1         -1004.694144999364426              0.1280923014D+01
   current occupation vector 
     7  3  3  1  5  2  2  0
     7  3  3  0  5  2  2  0
  processed                  85317  ao basis integrals from 
                   143  buffers.
  processed                 384502  ao basis integrals from 
                   641  buffers.
  processed                 675451  ao basis integrals from 
                  1126  buffers.
       2         -1083.172747040756803              0.2642727330D+01
   current occupation vector 
     8  3  3  1  5  2  1  0
     8  3  3  1  5  1  1  0
  processed                  85317  ao basis integrals from 
                   143  buffers.
  processed                 384502  ao basis integrals from 
                   641  buffers.
  processed                 675451  ao basis integrals from 
                  1126  buffers.
       3         -1110.288602674531376              0.2634172347D+01
   current occupation vector 
     7  3  3  0  6  2  2  0
     7  2  3  0  6  2  2  0
  processed                  85317  ao basis integrals from 
                   143  buffers.
  processed                 384502  ao basis integrals from 
                   641  buffers.
  processed                 675451  ao basis integrals from 
                  1126  buffers.
       4         -1114.120423475110329              0.8543973487D+00
   current occupation vector 
     7  3  3  0  6  2  2  0
     7  3  3  0  6  1  2  0
 
 sum over diagonal and offdiagdiagonal of C(T)*S*C for irrep
                     1
  2.953193245502916E-014 -3.440759595401273E-013
 reorthoganalization of MOs is carried out
 sum over diagonal and offdiagdiagonal of C(T)*S*C for irrep
                     1
  7.771561172376096E-016  6.360346687292800E-015
 
 sum over diagonal and offdiagdiagonal of C(T)*S*C for irrep
                     2
  2.220446049250313E-015 -1.066857227697714E-014
 reorthoganalization of MOs is carried out
 sum over diagonal and offdiagdiagonal of C(T)*S*C for irrep
                     2
  1.554312234475219E-015  1.143992834226058E-015
 
 sum over diagonal and offdiagdiagonal of C(T)*S*C for irrep
                     3
 -2.553512956637860E-014  8.351940533740601E-015
 reorthoganalization of MOs is carried out
 sum over diagonal and offdiagdiagonal of C(T)*S*C for irrep
                     3
  6.661338147750939E-016  3.392666339368477E-016
 
 sum over diagonal and offdiagdiagonal of C(T)*S*C for irrep
                     4
 -7.327471962526033E-015  1.741244724404203E-014
 reorthoganalization of MOs is carried out
 sum over diagonal and offdiagdiagonal of C(T)*S*C for irrep
                     4
  4.440892098500626E-016  5.705544581882411E-016
 
 sum over diagonal and offdiagdiagonal of C(T)*S*C for irrep
                     5
  6.439293542825908E-015 -4.137817812737353E-014
 reorthoganalization of MOs is carried out
 sum over diagonal and offdiagdiagonal of C(T)*S*C for irrep
                     5
  1.776356839400250E-015 -1.459442430996049E-015
 
 sum over diagonal and offdiagdiagonal of C(T)*S*C for irrep
                     6
  3.219646771412954E-015 -4.287200419503127E-014
 reorthoganalization of MOs is carried out
 sum over diagonal and offdiagdiagonal of C(T)*S*C for irrep
                     6
  2.220446049250313E-015  1.909077662834352E-015
 
 sum over diagonal and offdiagdiagonal of C(T)*S*C for irrep
                     7
  3.930189507173054E-014 -8.982426869778135E-014
 reorthoganalization of MOs is carried out
 sum over diagonal and offdiagdiagonal of C(T)*S*C for irrep
                     7
  1.110223024625157E-015  1.091878124433456E-015
 
 sum over diagonal and offdiagdiagonal of C(T)*S*C for irrep
                     8
  9.769962616701378E-015  4.400329384722512E-015
 reorthoganalization of MOs is carried out
 sum over diagonal and offdiagdiagonal of C(T)*S*C for irrep
                     8
 -4.440892098500626E-016  9.396644703660306E-017
  processed                  85317  ao basis integrals from 
                   143  buffers.
  processed                 384502  ao basis integrals from 
                   641  buffers.
  processed                 675451  ao basis integrals from 
                  1126  buffers.
       5         -1117.412249159525345              0.6983803705D+00
   current occupation vector 
     7  3  3  0  6  2  2  0
     7  2  3  0  6  2  2  0
  processed                  85317  ao basis integrals from 
                   143  buffers.
  processed                 384502  ao basis integrals from 
                   641  buffers.
  processed                 675451  ao basis integrals from 
                  1126  buffers.
       6         -1118.358456132621541              0.1948323032D+00
   current occupation vector 
     7  3  3  0  6  2  2  0
     7  2  3  0  6  2  2  0
  processed                  85317  ao basis integrals from 
                   143  buffers.
  processed                 384502  ao basis integrals from 
                   641  buffers.
  processed                 675451  ao basis integrals from 
                  1126  buffers.
       7         -1118.367505856116168              0.2049470132D-01
   current occupation vector 
     7  3  3  0  6  2  2  0
     7  2  3  0  6  2  2  0
  processed                  85317  ao basis integrals from 
                   143  buffers.
  processed                 384502  ao basis integrals from 
                   641  buffers.
  processed                 675451  ao basis integrals from 
                  1126  buffers.
       8         -1118.368082803110838              0.3338278163D-02
   current occupation vector 
     7  3  3  0  6  2  2  0
     7  2  3  0  6  2  2  0
  processed                  85317  ao basis integrals from 
                   143  buffers.
  processed                 384502  ao basis integrals from 
                   641  buffers.
  processed                 675451  ao basis integrals from 
                  1126  buffers.
       9         -1118.368136952291252              0.1071769810D-02
   current occupation vector 
     7  3  3  0  6  2  2  0
     7  2  3  0  6  2  2  0
 
 sum over diagonal and offdiagdiagonal of C(T)*S*C for irrep
                     1
  6.128431095930864E-014 -1.257785740374300E-014
 reorthoganalization of MOs is carried out
 sum over diagonal and offdiagdiagonal of C(T)*S*C for irrep
                     1
 -2.886579864025407E-015 -1.049661388853952E-014
 
 sum over diagonal and offdiagdiagonal of C(T)*S*C for irrep
                     2
  1.576516694967722E-014  3.502571063541176E-015
 reorthoganalization of MOs is carried out
 sum over diagonal and offdiagdiagonal of C(T)*S*C for irrep
                     2
 -1.887379141862766E-015  4.838704869177536E-016
 
 sum over diagonal and offdiagdiagonal of C(T)*S*C for irrep
                     3
  1.287858708565182E-014 -6.198244033316337E-015
 reorthoganalization of MOs is carried out
 sum over diagonal and offdiagdiagonal of C(T)*S*C for irrep
                     3
 -1.776356839400250E-015 -8.825146213565096E-016
 
 sum over diagonal and offdiagdiagonal of C(T)*S*C for irrep
                     4
  7.549516567451064E-015 -1.457205836303144E-015
 reorthoganalization of MOs is carried out
 sum over diagonal and offdiagdiagonal of C(T)*S*C for irrep
                     4
 -8.881784197001252E-016 -6.095266029100890E-016
 
 sum over diagonal and offdiagdiagonal of C(T)*S*C for irrep
                     5
  8.903988657493755E-014  5.023403003770237E-015
 reorthoganalization of MOs is carried out
 sum over diagonal and offdiagdiagonal of C(T)*S*C for irrep
                     5
 -1.998401444325282E-015  4.174548762649605E-015
 
 sum over diagonal and offdiagdiagonal of C(T)*S*C for irrep
                     6
  3.352873534367973E-014  1.571891292665923E-014
 reorthoganalization of MOs is carried out
 sum over diagonal and offdiagdiagonal of C(T)*S*C for irrep
                     6
  1.221245327087672E-015 -2.347101460543505E-015
 
 sum over diagonal and offdiagdiagonal of C(T)*S*C for irrep
                     7
  3.885780586188048E-015  2.159893001014413E-015
 reorthoganalization of MOs is carried out
 sum over diagonal and offdiagdiagonal of C(T)*S*C for irrep
                     7
 -1.776356839400250E-015 -1.102983104755391E-015
 
 sum over diagonal and offdiagdiagonal of C(T)*S*C for irrep
                     8
 -1.243449787580175E-014 -1.754894295066247E-015
 reorthoganalization of MOs is carried out
 sum over diagonal and offdiagdiagonal of C(T)*S*C for irrep
                     8
  1.110223024625157E-016  4.599100912388784E-016
  processed                  85317  ao basis integrals from 
                   143  buffers.
  processed                 384502  ao basis integrals from 
                   641  buffers.
  processed                 675451  ao basis integrals from 
                  1126  buffers.
      10         -1118.368141377354505              0.5646065067D-03
   current occupation vector 
     7  3  3  0  6  2  2  0
     7  2  3  0  6  2  2  0
  processed                  85317  ao basis integrals from 
                   143  buffers.
  processed                 384502  ao basis integrals from 
                   641  buffers.
  processed                 675451  ao basis integrals from 
                  1126  buffers.
      11         -1118.368141809482495              0.1970503739D-03
   current occupation vector 
     7  3  3  0  6  2  2  0
     7  2  3  0  6  2  2  0
  processed                  85317  ao basis integrals from 
                   143  buffers.
  processed                 384502  ao basis integrals from 
                   641  buffers.
  processed                 675451  ao basis integrals from 
                  1126  buffers.
      12         -1118.368141829379056              0.5328413449D-04
   current occupation vector 
     7  3  3  0  6  2  2  0
     7  2  3  0  6  2  2  0
  processed                  85317  ao basis integrals from 
                   143  buffers.
  processed                 384502  ao basis integrals from 
                   641  buffers.
  processed                 675451  ao basis integrals from 
                  1126  buffers.
      13         -1118.368141829712840              0.7919493212D-05
   current occupation vector 
     7  3  3  0  6  2  2  0
     7  2  3  0  6  2  2  0
  processed                  85317  ao basis integrals from 
                   143  buffers.
  processed                 384502  ao basis integrals from 
                   641  buffers.
  processed                 675451  ao basis integrals from 
                  1126  buffers.
      14         -1118.368141829736032              0.1542502024D-05
   current occupation vector 
     7  3  3  0  6  2  2  0
     7  2  3  0  6  2  2  0
 
 sum over diagonal and offdiagdiagonal of C(T)*S*C for irrep
                     1
  1.787459069646502E-014 -2.683050573533679E-014
 reorthoganalization of MOs is carried out
 sum over diagonal and offdiagdiagonal of C(T)*S*C for irrep
                     1
 -3.552713678800501E-015 -2.531680685088183E-014
 
 sum over diagonal and offdiagdiagonal of C(T)*S*C for irrep
                     2
  2.442490654175344E-015 -1.283397904007969E-014
 reorthoganalization of MOs is carried out
 sum over diagonal and offdiagdiagonal of C(T)*S*C for irrep
                     2
 -1.665334536937735E-015  4.543966249905939E-016
 
 sum over diagonal and offdiagdiagonal of C(T)*S*C for irrep
                     3
 -3.108624468950438E-015 -4.823865452216272E-015
 reorthoganalization of MOs is carried out
 sum over diagonal and offdiagdiagonal of C(T)*S*C for irrep
                     3
  1.110223024625157E-016  3.169513492702762E-015
 
 sum over diagonal and offdiagdiagonal of C(T)*S*C for irrep
                     4
  1.776356839400250E-015 -5.890046886640118E-016
 reorthoganalization of MOs is carried out
 sum over diagonal and offdiagdiagonal of C(T)*S*C for irrep
                     4
 -5.551115123125783E-016  4.563576350580939E-016
 
 sum over diagonal and offdiagdiagonal of C(T)*S*C for irrep
                     5
  1.743050148661496E-014 -3.746315160661121E-014
 reorthoganalization of MOs is carried out
 sum over diagonal and offdiagdiagonal of C(T)*S*C for irrep
                     5
  3.441691376337985E-015  3.488445986778497E-016
 
 sum over diagonal and offdiagdiagonal of C(T)*S*C for irrep
                     6
  1.276756478318930E-014  7.536396080658040E-016
 reorthoganalization of MOs is carried out
 sum over diagonal and offdiagdiagonal of C(T)*S*C for irrep
                     6
  3.219646771412954E-015 -8.158796569881072E-016
 
 sum over diagonal and offdiagdiagonal of C(T)*S*C for irrep
                     7
 -1.210143096841421E-014 -1.075561651118917E-016
 reorthoganalization of MOs is carried out
 sum over diagonal and offdiagdiagonal of C(T)*S*C for irrep
                     7
  1.998401444325282E-015 -3.685063377752463E-015
 
 sum over diagonal and offdiagdiagonal of C(T)*S*C for irrep
                     8
  8.881784197001252E-016 -3.470471014786845E-015
 reorthoganalization of MOs is carried out
 sum over diagonal and offdiagdiagonal of C(T)*S*C for irrep
                     8
 -3.330669073875470E-016 -3.351794075579992E-016
  processed                  85317  ao basis integrals from 
                   143  buffers.
  processed                 384502  ao basis integrals from 
                   641  buffers.
  processed                 675451  ao basis integrals from 
                  1126  buffers.
      15         -1118.368141829742626              0.1409662652D-06
   current occupation vector 
     7  3  3  0  6  2  2  0
     7  2  3  0  6  2  2  0
  processed                  85317  ao basis integrals from 
                   143  buffers.
  processed                 384502  ao basis integrals from 
                   641  buffers.
  processed                 675451  ao basis integrals from 
                  1126  buffers.
      16         -1118.368141829744673              0.3403053328D-07
   current occupation vector 
     7  3  3  0  6  2  2  0
     7  2  3  0  6  2  2  0
  processed                  85317  ao basis integrals from 
                   143  buffers.
  processed                 384502  ao basis integrals from 
                   641  buffers.
  processed                 675451  ao basis integrals from 
                  1126  buffers.
      17         -1118.368141829743308              0.1256979790D-07
   current occupation vector 
     7  3  3  0  6  2  2  0
     7  2  3  0  6  2  2  0
  processed                  85317  ao basis integrals from 
                   143  buffers.
  processed                 384502  ao basis integrals from 
                   641  buffers.
  processed                 675451  ao basis integrals from 
                  1126  buffers.
      18         -1118.368141829743536              0.7990715506D-08
   current occupation vector 
     7  3  3  0  6  2  2  0
     7  2  3  0  6  2  2  0
  processed                  85317  ao basis integrals from 
                   143  buffers.
  processed                 384502  ao basis integrals from 
                   641  buffers.
  processed                 675451  ao basis integrals from 
                  1126  buffers.
      19         -1118.368141829745127              0.8898383003D-09
   current occupation vector 
     7  3  3  0  6  2  2  0
     7  2  3  0  6  2  2  0
 
 sum over diagonal and offdiagdiagonal of C(T)*S*C for irrep
[...]
   The BB contribution to the correlation energy is:   -0.0670490 a.u.
   The AB contribution to the correlation energy is:   -0.4281251 a.u.
   The total correlation energy is -0.565540460614 a.u.
   The total correlation energy is -0.565540460614 a.u.
  Current DIIS expansion coefficients : 
 [   1] 0.0547704080 [   2]-0.1577124682 [   3]-0.0966709921 [   4] 1.2025264466
 [   5]-0.0029133942
  Convergence information after    19 iterations: 
  Largest element of residual vector :  0.13129409E-08.
  Largest element of DIIS residual   :  0.96435038E-09.
  W(mnij) AA contribution =  0.0093960117 a.u.
  W(mnij) BB contribution =  0.0096467503 a.u.
  W(mnij) AB contribution =  0.0853694194 a.u.
  W(abef) AA contribution =  0.0115754701 a.u.
  W(abef) BB contribution =  0.0118074057 a.u.
  W(abef) AB contribution =  0.1053374805 a.u.
  W(mbej) AA contribution =  -0.0225320910 a.u.
  W(mbej) BB contribution =  -0.0237536228 a.u.
  W(mbej) AB contribution = -0.2693041725 a.u.
   After  20 iterations, amplitude changes are:
    -------------------------------------------------------------------
                 Spin      RMS          Max.      Max. change for
     Amplitude   Case     Change       Change       i    j    a    b
    -------------------------------------------------------------------
        T1        AA    0.0000000000 0.0000000005    2        12
        T1        BB    0.0000000000 0.0000000001    1        11
        T2        AA    0.0000000000 0.0000000000    4    2   34   12
        T2        BB    0.0000000000 0.0000000000    9    7   33   11
        T2        AB    0.0000000000 0.0000000003    9    9   12   33
    -------------------------------------------------------------------
   The AA contribution to the correlation energy is:   -0.0703664 a.u.
   The BB contribution to the correlation energy is:   -0.0670490 a.u.
   The AB contribution to the correlation energy is:   -0.4281251 a.u.
   The total correlation energy is -0.565540460651 a.u.
   The total correlation energy is -0.565540460651 a.u.
  Current DIIS expansion coefficients : 
 [   1] 0.0084240566 [   2] 0.0113228299 [   3]-0.0635416739 [   4]-0.3123641277
 [   5] 1.3561589151
  Convergence information after    20 iterations: 
  Largest element of residual vector :  0.45200396E-09.
  Largest element of DIIS residual   :  0.22638099E-09.
  Amplitude equations converged in    20iterations.
   The AA contribution to the correlation energy is:   -0.0703664 a.u.
   The BB contribution to the correlation energy is:   -0.0670490 a.u.
   The AB contribution to the correlation energy is:   -0.4281251 a.u.
   The total correlation energy is -0.565540460665 a.u.
   The total correlation energy is -0.565540460665 a.u.
   The CC iterations have converged.

            ----------------------------------------------
                     Projected spin multiplicities: 
            ----------------------------------------------
             <0|S^2|0>                  =    0.7500000000.
             <0|S^2 (T2+T1**2) |0>      =    0.0000000000.
             <0|S^2 T1|0>               =    0.0000000000.
             Projected <0|S^2 exp(T)|0> =    0.7500000000.
             Approximate spin mult.     =    2.0000000000.
            ----------------------------------------------
   Largest T1 amplitudes for spin case AA:
   i       a                 i       a                 i       a    
-----------------------------------------------------------------------------
[  2      12    ] 0.03322 [ 10      79    ]-0.02977 [ 10      81    ]-0.02495
[  4      34    ] 0.01929 [  1      17    ]-0.01521 [  8      66    ] 0.01517
[  6      45    ] 0.01511 [ 10      80    ] 0.01255 [  2      14    ] 0.01251
[  8      64    ]-0.01006 [ 10      86    ] 0.00710 [  1      16    ] 0.00690
[  9      65    ]-0.00656 [  8      68    ] 0.00582 [  4      37    ] 0.00579
-----------------------------------------------------------------------------
   Norm of T1AA vector (      158 symmetry allowed elements):  0.0698728522.
-----------------------------------------------------------------------------
   Largest T2 amplitudes for spin case AA:
   i   j   a   b             i   j   a   b             i   j   a   b
-----------------------------------------------------------------------------
[ 11  10 101  66]-0.01972 [  6   4 101  66]-0.01858 [ 10   6 101  17]-0.01801
[ 10   6  66  57]-0.01799 [ 11   4  66  57] 0.01799 [ 11   4 101  17] 0.01796
[  6   4  57  17] 0.01701 [ 11  10  57  17] 0.01683 [ 10   9  80  64]-0.01247
[  5   3  61  28]-0.01227 [ 11   9  91  64]-0.01200 [  9   4  80  16]-0.01053
[ 10   2  80  16] 0.01048 [  9   4  64  37] 0.01030 [  4   2  80  64]-0.01014
-----------------------------------------------------------------------------
   Norm of T2AA vector (    30046 symmetry allowed elements):  0.1407401190.
-----------------------------------------------------------------------------
   Largest T1 amplitudes for spin case BB:
   i       a                 i       a                 i       a    
-----------------------------------------------------------------------------
[  2      11    ] 0.03483 [  5      45    ] 0.02004 [  9      79    ] 0.01635
[  2      13    ] 0.01544 [  7      66    ]-0.00897 [  1      16    ] 0.00833
[  9      81    ] 0.00686 [  7      67    ]-0.00574 [  9      82    ] 0.00502
[  2      15    ] 0.00478 [  5      46    ] 0.00478 [  1      19    ]-0.00435
[ 10      90    ] 0.00405 [  1      15    ]-0.00398 [  9      80    ]-0.00396
-----------------------------------------------------------------------------
   Norm of T1BB vector (      148 symmetry allowed elements):  0.0526029916.
-----------------------------------------------------------------------------
   Largest T2 amplitudes for spin case BB:
   i   j   a   b             i   j   a   b             i   j   a   b
-----------------------------------------------------------------------------
[  9   8  33  11] 0.06123 [ 10   9  45  33] 0.04283 [  9   8  33  13] 0.03493
[  9   5  90  33]-0.02648 [  9   2  65  33]-0.02588 [ 10   9  47  33] 0.02368
[ 10   9 101  66]-0.01876 [  9   5  92  33]-0.01801 [  9   5  66  57]-0.01673
[  9   5 101  16]-0.01671 [  9   7  33  11] 0.01519 [ 10   9  57  16] 0.01506
[  9   1  63  33]-0.01495 [  9   8  33  15] 0.01440 [  9   8  33  18] 0.01378
-----------------------------------------------------------------------------
   Norm of T2BB vector (    25260 symmetry allowed elements):  0.1626522718.
-----------------------------------------------------------------------------
   Largest T2 amplitudes for spin case AB:
       _       _                 _       _                 _       _
   i   j   a   b             i   j   a   b             i   j   a   b
-----------------------------------------------------------------------------
[  9   9  12  33] 0.06844 [ 10   9  34  33] 0.05882 [ 11   9  45  33] 0.04771
[  4   9  79  33] 0.03732 [  9   9  14  33] 0.03681 [ 10   9  36  33] 0.03568
[  6   9  90  33] 0.02990 [  2   9  65  33] 0.02859 [ 11   9  47  33] 0.02766
[  4   9  81  33] 0.02702 [ 11   1 101  33]-0.02272 [ 10   1  66  33]-0.02214
[  6   7 101  33]-0.02189 [  4   7  66  33]-0.02138 [ 11   7  57  33]-0.02129
-----------------------------------------------------------------------------
   Norm of T2AB vector (   124782 symmetry allowed elements):  0.4009413226.
-----------------------------------------------------------------------------
       Summary of iterative solution of CC equations 
      -----------------------------------------------------------
                       Correlation           Total
       Iteration         Energy              Energy
      -----------------------------------------------------------
            0        -0.531362187449   -1118.899504017193  DIIS 
            1        -0.553870817520   -1118.922012647263  DIIS 
            2        -0.563268482969   -1118.931410312712  DIIS 
            3        -0.564456004935   -1118.932597834678  DIIS 
            4        -0.565446467234   -1118.933588296977  DIIS 
            5        -0.565550615843   -1118.933692445587  DIIS 
            6        -0.565542439428   -1118.933684269171  DIIS 
            7        -0.565539164995   -1118.933680994738  DIIS 
            8        -0.565538436449   -1118.933680266193  DIIS 
            9        -0.565539772226   -1118.933681601970  DIIS 
           10        -0.565540295259   -1118.933682125003  DIIS 
           11        -0.565540446359   -1118.933682276103  DIIS 
           12        -0.565540457878   -1118.933682287621  DIIS 
           13        -0.565540464270   -1118.933682294014  DIIS 
           14        -0.565540461676   -1118.933682291419  DIIS 
           15        -0.565540461267   -1118.933682291010  DIIS 
           16        -0.565540460968   -1118.933682290711  DIIS 
           17        -0.565540460593   -1118.933682290336  DIIS 
           18        -0.565540460643   -1118.933682290386  DIIS 
           19        -0.565540460614   -1118.933682290357  DIIS 
           20        -0.565540460665   -1118.933682290408  DIIS 
      -----------------------------------------------------------
      A miracle has come to pass. The CC iterations have converged.
 @DIMT3-I, Dimensions of T3 amplitudes : 
               # abc          # ijk       Symmetry    Spin 
                    16596             22     1          1
                    16247             18     2          1
                    16247             18     3          1
                    15646             22     4          1
                    16810             18     5          1
                    16247             22     6          1
                    16247             22     7          1
                    15726             23     8          1
                    52351             79     1          2
                    50351             68     2          2
                    50213             69     3          2
                    48121             59     4          2
                    52441             76     5          2
                    50375             66     6          2
                    50195             72     7          2
                    48085             61     8          2
                    52890             74     1          3
                    51042             53     2          3
                    50673             66     3          3
                    48660             52     4          3
                    52980             71     5          3
                    50997             57     6          3
                    50637             69     7          3
                    48624             53     8          3
                    17135             17     1          4
                    16845             13     2          4
                    16707             15     3          4
                    16185             15     4          4
                    17349             13     5          4
                    16869             13     6          4
                    16689             19     7          4
                    16265             15     8          4
 @DIMT3-I, Dimensions of T3 amplitudes : 
               # abc          # ijk       Symmetry    Spin 
                    16596             22     1          1
                    16247             18     2          1
                    16247             18     3          1
                    15646             22     4          1
                    16810             18     5          1
                    16247             22     6          1
                    16247             22     7          1
                    15726             23     8          1
                    52351             79     1          2
                    50351             68     2          2
                    50213             69     3          2
                    48121             59     4          2
                    52441             76     5          2
                    50375             66     6          2
                    50195             72     7          2
                    48085             61     8          2
                    52890             74     1          3
                    51042             53     2          3
                    50673             66     3          3
                    48660             52     4          3
                    52980             71     5          3
                    50997             57     6          3
                    50637             69     7          3
                    48624             53     8          3
                    17135             17     1          4
                    16845             13     2          4
                    16707             15     3          4
                    16185             15     4          4
                    17349             13     5          4
                    16869             13     6          4
                    16689             19     7          4
                    16265             15     8          4
 @TRPS-I, Welcome to TRPS. Watch your RUs ! 
 @TRPS-I, Method is CCSD(T) 
 @TRPS-I, Calculation type is energy 
 @TRPS-I, Reference function information : 
          Reference function is general non-HF 
 @TRPS-I, Reference function is ROHF 
 @TRPS-I, INT1 is true 
 @TRPS-I, INT2 is false 
 @TRPS-I, Lengths of ijka integrals. #1       7274
                                     #2       5592
                                     #3      13650
                                     #4      15036
                                    Max      15036
 @INITRP-I, Initializing W intermediate lists. 
 @TSPABCI-I, AbIc/AbcI record transposition. 
 @TSPABCI-I, (O,v) ---> (v,O) transposition. 
 @TSPABCI-I, In-core algorithm is being used. 
 @TSPABCI-I, In-core algorithm is being used. 
 @TSPABCI-I, In-core algorithm is being used. 
 @TSPABCI-I, In-core algorithm is being used. 
 @TSPABCI-I, In-core algorithm is being used. 
 @TSPABCI-I, In-core algorithm is being used. 
 @TSPABCI-I, In-core algorithm is being used. 
 @TSPABCI-I, In-core algorithm is being used. 
 @TRPS-I, Available memory in integer words    249959040
          Number of pre-allocated words for TRPS14        45331
          Number of free words for TRPS14    249913709
 @TRPS14-I, Spin case AAA 
 @TRPS14-I, Number of free integer words  249913709
            Number of free double words   249913709
            Ratio                                 1
 @TRPS14-I, E4TAAA      -0.000463529471
 @TRPS14-I, E5ST A    0.000005813785516
 @TRPS14-I, E4ST A   -0.000001131102833
 @TRPS-I, Available memory in integer words    249959040
          Number of pre-allocated words for TRPS14        45321
          Number of free words for TRPS14    249913719
 @TRPS14-I, Spin case BBB 
 @TRPS14-I, Number of free integer words  249913719
            Number of free double words   249913719
            Ratio                                 1
 @TRPS14-I, E4TBBB      -0.000777270458
 @TRPS14-I, E5ST B    0.000028825179657
 @TRPS14-I, E4ST B    0.000005274917842
 @SETOOOV-I, Some OOOV lists are being transposed. 
 @TRPS-I, Available memory in integer words    249959040
          Number of pre-allocated words for TRPS2        62053
          Number of free words for TRPS2    249896987
 @TRPS2-I, Spin case AAB 
 @TRPS2-I, Number of free integer words  249896987
           Number of free double  words  249896987
           Ratio                                 1
 @TRPS2-I, E4TBAA      -0.010247336325
 @TRPS2-I, E5ST A    0.000090901674577
 @TRPS2-I, E5ST B    0.000030829571999
 @TRPS2-I, E4ST A   -0.000020360450797
 @TRPS2-I, E4ST B   -0.000005386041213
 @SETOOOV-I, Some OOOV lists are being transposed. 
 @TSPABCI2-I, (Alpha,Beta) ---> (Beta,Alpha). 
 @TSPABCI2-I, In-core algorithm is being used. 
 @TSPABCI2-I, In-core algorithm is being used. 
 @TSPABCI2-I, In-core algorithm is being used. 
 @TSPABCI2-I, In-core algorithm is being used. 
 @TSPABCI2-I, In-core algorithm is being used. 
 @TSPABCI2-I, In-core algorithm is being used. 
 @TSPABCI2-I, In-core algorithm is being used. 
 @TSPABCI2-I, In-core algorithm is being used. 
 @TSPABCI2-I, In-core algorithm is being used. 
 @TSPABCI2-I, In-core algorithm is being used. 
 @TSPABCI2-I, In-core algorithm is being used. 
 @TSPABCI2-I, In-core algorithm is being used. 
 @TSPABCI2-I, In-core algorithm is being used. 
 @TSPABCI2-I, In-core algorithm is being used. 
 @TSPABCI2-I, In-core algorithm is being used. 
 @TSPABCI2-I, In-core algorithm is being used. 
 @AT2IAB-I, Some AbIj lists are being altered. 
 @TRPS-I, Available memory in integer words    249959040
          Number of pre-allocated words for TRPS3       242723
          Number of free words for TRPS3    249716317
 @TRPS3-I, Spin case BBA 
 @TRPS3-I, Number of free integer words  249716317
           Number of free double  words  249716317
           Ratio                                 1
 @TRPS3-I, E4TBBA      -0.010841767577
 @TRPS3-I, E5ST A    0.000162969734819
 @TRPS3-I, E5ST B    0.000095575816702
 @TRPS3-I, E4ST A   -0.000032987348624
 @TRPS3-I, E4ST B    0.000000478951632
 @TSPABCI2-I, (Beta,Alpha) ---> (Alpha,Beta). 
 @TSPABCI2-I, In-core algorithm is being used. 
 @TSPABCI2-I, In-core algorithm is being used. 
 @TSPABCI2-I, In-core algorithm is being used. 
 @TSPABCI2-I, In-core algorithm is being used. 
 @TSPABCI2-I, In-core algorithm is being used. 
 @TSPABCI2-I, In-core algorithm is being used. 
 @TSPABCI2-I, In-core algorithm is being used. 
 @TSPABCI2-I, In-core algorithm is being used. 
 @TSPABCI2-I, In-core algorithm is being used. 
 @TSPABCI2-I, In-core algorithm is being used. 
 @TSPABCI2-I, In-core algorithm is being used. 
 @TSPABCI2-I, In-core algorithm is being used. 
 @TSPABCI2-I, In-core algorithm is being used. 
 @TSPABCI2-I, In-core algorithm is being used. 
 @TSPABCI2-I, In-core algorithm is being used. 
 @TSPABCI2-I, In-core algorithm is being used. 
 @AT2IAB-I, Some AbIj lists are being altered. 
 @TSPABCI-I, AbIc/AbcI record transposition. 
 @TSPABCI-I, (v,O) ---> (O,v) transposition. 
 @TSPABCI-I, In-core algorithm is being used. 
 @TSPABCI-I, In-core algorithm is being used. 
 @TSPABCI-I, In-core algorithm is being used. 
 @TSPABCI-I, In-core algorithm is being used. 
 @TSPABCI-I, In-core algorithm is being used. 
 @TSPABCI-I, In-core algorithm is being used. 
 @TSPABCI-I, In-core algorithm is being used. 
 @TSPABCI-I, In-core algorithm is being used. 
 @CCENRG-I, CCSD/QCISD energy will now be evaluated. 
 @CCENRG-I, Correlation energies. ECCAA       -0.070366376123
                                  ECCBB       -0.067049029651
                                  ECCAB       -0.428125054892
                                  Total       -0.565540460665
 @CCENRG-I, Reference   energy   -1118.368141829743
            CCSD/QCISD energy    -1118.933682290408
          E4T (T(CCSD)) = -0.022329903831
          E5ST          =  0.000258545552
          E4ST          = -0.000032508397
          In other words  
          <T3[2](Dagger) D3  T3[2]> = -0.022329903831
          <T1   (Dagger) Q1 WT3[2]> =  0.000258545552
          <T2   (Dagger) Q2 FT3[2]> = -0.000032508397
        E(CCSD)           =   -1118.933682290408
        E(CCSD(T))        =   -1118.955786157085
  @CHECKOUT-I, Total execution time (CPU/WALL):       78.19/      96.41 seconds.
--executable xvcc finished with status     0 in       96.65 seconds (walltime).
  The final electronic energy is     -1118.955786157084958 a.u. 
  This computation required                          137.15 seconds (walltime).
--- SharcNET Job Epilogue ---
Job completed successfully.
               jobid: 1968168
               resid: 3436337
         exit status: 0
      allocated time: 138.219
           user time: 79.82
         system time: 14.7
peak rss=437936128; peak vsz=437936128 (bytes)
atime=138.219; utime=79.82; stime=14.7; exit=0
