 --invoking executable--
/project1/nike/cfour_v2.00beta_May2019xnmol_noLABBASIS/bin/xjoda


   *************************************************************************
         <<<     CCCCCC     CCCCCC   |||     CCCCCC     CCCCCC   >>>
       <<<      CCC        CCC       |||    CCC        CCC         >>>
      <<<      CCC        CCC        |||   CCC        CCC            >>>
    <<<        CCC        CCC        |||   CCC        CCC              >>>
      <<<      CCC        CCC        |||   CCC        CCC            >>>
       <<<      CCC        CCC       |||    CCC        CCC         >>>
         <<<     CCCCCC     CCCCCC   |||     CCCCCC     CCCCCC   >>>
   *************************************************************************

     ****************************************************************
     * CFOUR Coupled-Cluster techniques for Computational Chemistry *
     ****************************************************************
 

   Department of Chemistry                Institut fuer Physikalische Chemie
   University of Texas at Austin          Universitaet Mainz
   Austin, TX  78712, USA                 D-55099 Mainz, Germany
 
                       Version 2.00beta
 
                     req211                                            
                     Tue Mar 10 00:25:07 EDT 2020                      
                     integer*8 version is running
 
********************************************************************************
*                          Input from ZMAT file                                *
********************************************************************************
TITLE                                                                           
Cl                                                                              
Cl 1 R                                                                          
                                                                                
R=3.75639759053                                                                 
                                                                                
*ACES2(CALC=CCSD(T)                                                             
UNITS=BOHR                                                                      
#GEOM=1.9878*10/5.29177210903_in9-22ofCRC2016                                   
#COORD=CARTESIAN                                                                
COORD=INTERNAL                                                                  
PRINT=4                                                                         
JODA_PRINT=4                                                                    
INPUT_MRCC=OFF                                                                  
#CC_PROG=MRCC                                                                   
FROZEN_CORE=ON                                                                  
#DROPMO=1>5                                                                     
CONTRACTION=GENERAL                                                             
#CONTRACTION=SEGMENTED                                                          
RELATIVISTIC=OFF                                                                
#EXCITE=EOMEE                                                                   
#ESTATE_CONV=5                                                                  
#ESTATE_SYM=2/2/2/2/2/2/2/2                                                     
XFORM_TOL=18                                                                    
SAVE_INTS=ON                                                                    
SCF_EXPORDER=6                                                                  
SCF_EXPSTART=5                                                                  
#SCF_DAMPING=1000                                                               
SCF_EXTRAPOLATION=ON                                                            
SCF_CONV=14                                                                     
SCF_MAXCYC=9999                                                                 
CC_CONV=9                                                                       
CC_MAXCYC=999                                                                   
T3_EXTRAPOL=ON                                                                  
REFERENCE=ROHF                                                                  
CHARGE=+1                                                                       
MULT=2                                                                          
ABCDTYPE=STANDARD                                                               
#OCCUPATION=3-2-2-0-1-0-0-0/3-1-1-0-1-0-0-0                                     
MEM=4                                                                           
MEM_UNIT=GB                                                                     
BASIS=SPECIAL)                                                                  
                                                                                
CL:def2-TZVPP                                                                   
CL:def2-TZVPP                                                                   
                                                                                
********************************************************************************
  @GTFLGS-W, Keyword #GEOM not known and is ignored.
  @GTFLGS-W, Keyword #COORD not known and is ignored.
  @GTFLGS-W, Keyword #CC_PROG not known and is ignored.
  @GTFLGS-W, Keyword #DROPMO not known and is ignored.
  @GTFLGS-W, Keyword #CONTRACTION not known and is ignored.
  @GTFLGS-W, Keyword #EXCITE not known and is ignored.
  @GTFLGS-W, Keyword #ESTATE_CONV not known and is ignored.
  @GTFLGS-W, Keyword #ESTATE_SYM not known and is ignored.
  @GTFLGS-W, Keyword #SCF_DAMPING not known and is ignored.
  @GTFLGS-W, Keyword #OCCUPATION not known and is ignored.
    -------------------------------------------------------------------
                    CFOUR Control Parameters 
    -------------------------------------------------------------------
        External           Internal           Value            Units
          Name               Name
    -------------------------------------------------------------------
       ABCDTYPE             IABCDT         STANDARD     [  0]   ***   
       ANHARMONIC           IANHAR         OFF          [  0]   ***   
       ANH_ALGORIT          IANALG         STANDARD     [  0]   ***   
       ANH_DERIVAT          IANDER         SECOND       [  1]   ***   
       ANH_STEPSIZ          ICUBST             50000          x 10-6  
       ANH_SYMMETR          IANHSM         ABELIAN      [  0]   ***   
       AO_LADDERS           IAOLAD         SINGLEPASS   [  1]   ***   
       BASIS                IBASIS         SPECIAL      [  0]   ***   
       BREIT                IBREIT         OFF          [  0]   ***   
       BRUCK_CONV           IBRTOL          10D-  4             ***   
       BRUECKNER            IBRKNR             OFF      [  0]   ***   
       BUFFERSIZE           IBUFFS            600               ***   
       CACHE_RECS           ICHREC             10               ***   
       CALCLEVEL            ICLLVL           CCSD(T)    [ 22]   ***   
       CCORBOPT             ICCORB             OFF      [  0] x 0.01  
       CC_CONV              ICCCNV          10D-  9             ***   
       CC_EXPORDER          ICCEOR              5               ***   
       CC_EXTRAPOL          ICCEXT             DIIS     [  1]   ***   
       CC_MAXCYC            ICCCYC            999              cycles 
       CC_PROGRAM           ICCPRO         VCC          [  0]   ***   
       CHARGE               ICHRGE              1               ***   
       CHOLESKY             ICHOLE         OFF          [  0]   ***   
       CIS_CONV             ICISTL              5               ***   
       COMM_SIZE            IPSIZE            ***               ***   
       CONSTANT             ICONST         OLD          [  1]   ***   
       CONTINUUM            ICONTU         NONE         [  0]   ***   
       CONTRACTION          ICNTYP          GENERAL     [  1]   ***   
       COORDINATES          ICOORD         INTERNAL     [  0]   ***   
       CPHF_CONVER          ICPHFT          10D- 16             ***   
       CPHF_MAXCYC          ICPHFC             64              cycles 
       CUBIC                ICUBIC         OFF          [  0]   ***   
       CURVILINEAR          ICURVY            OFF       [  0]   ***   
       DBOC                 IDBOC          OFF          [  0]   ***   
       DCT                  IDCT           OFF          [  0]   ***   
       DERIV_LEV            IDRLVL            ZERO      [  0]   ***   
       DIAG_MRCC            IEOMST          10D-  0             ***   
       DIFF_TYPE            IDIFTY         RELAXED      [  0]   ***   
       DIRECT               IDIRCT         OFF          [  0]   ***   
       DROPMO               IDRPMO      NONE         
       ECP                  IECP           OFF          [  0]   ***   
       EIGENVECTOR          IVEC                1               ***   
       EL_ANHARM            IELANH         OFF          [  0]   ***   
       EOMFOLLOW            IEOMSR         ENERGY       [  0]   ***   
       EOM_MRCC             IMRCCE         NEW          [  1]   ***   
       EOM_NONIT            EOMNON         OFF          [  0]   ***   
       EOM_NSING            IEOMSI          10D-  0             ***   
       EOM_NSTATES          IMRCCD         DAVIDSON     [  0]   ***   
       EOM_NTRIP            IEOMTR          10D-  0             ***   
       EOM_ORDER            IEXORD         ENERGY       [  0]   ***   
       ESTATE_CONV          IEXTOL          10D-  5             ***   
       ESTATE_DIAG          IEXDIG         ITERATIVE    [  0]   ***   
       ESTATE_LOCK          IESLOC         ON           [  1]   ***   
       ESTATE_MAXC          IEXMXC             20               ***   
       ESTATE_PROP          IEXPRP         OFF          [  0]   ***   
       EVAL_HESS            IRECAL              0            # of cyc.
       EXCITATION           IEXCIT              0               ***   
       EXCITE               IEXCIT         NONE         [  0]   ***   
       FCGRADNEW            IFCGNW         OFF          [  0]   ***   
       FC_FIELD             IFINFC              0             x 10-6  
       FD_CALTYPE           IFDCAL         GRADONLY     [  0]   ***   
       FD_PROJECT           IFDPRJ         OFF          [  1]   ***   
       FD_STEPSIZE          IDISFD              0            10-4 bohr
       FD_USEGROUP          IFDGRP         FULL         [  0]   ***   
       FILE_RECSIZ          IFLREC              4096           words  
       FINITE_PERT          IFIPER              0             x 10-6  
       FIXGEOM              IFIXGM         OFF          [  0]   ***   
       FOCK                 IFOCK          AO           [  1]   ***   
       FREQ_ALGORI          IVIALG         STANDARD     [  0]   ***   
       FROZEN_CORE          IFROCO         ON           [  1]   ***   
       FROZEN_VIRT          IFROVI         OFF          [  0]   ***   
       GAMMA_ABCD           IGABCD         STORE        [  0]   ***   
       GAMMA_ABCI           IGABCI         STORE        [  0]   ***   
       GENBAS_1             IGNBS1              0               ***   
       GENBAS_2             IGNBS2              0               ***   
       GENBAS_3             IGNBS3              0               ***   
       GENBAS_4             IGNBS4              0               ***   
       GEO_CONV             ICONTL              5              H/bohr 
       GEO_MAXCYC           IOPTCY             50               ***   
       GEO_MAXSTEP          IMXSTP            300            millibohr
       GEO_METHOD           INR            SINGLE_POINT [  5]   ***   
       GIAO                 IGIAO          OFF          [  1]   ***   
       GIMIC                IGIMIC         OFF          [  0]   ***   
       GRID                 IGRID          OFF          [  0]   ***   
       GRID_ALGO            IGALGO         SERIAL       [  0]   ***   
       GUESS                IGUESS            MOREAD    [  0]   ***   
       HBAR                 IHBAR              OFF      [  0]   ***   
       HESS_TYPE            IHESTP         SCF          [  0]   ***   
       HF2_FILE             IHF2Fl         USE          [  1]   ***   
       HFSTABILITY          ISTABL         OFF          [  0]   ***   
       INCORE               INCORE             OFF      [  0]   ***   
       INPUT_MRCC           IMRCC          OFF          [  0]   ***   
       INTEGRALS            INTTYP             VMOL     [  1]   ***   
       JODA_PRINT           IJPRNT              4               ***   
       LINDEP_TOL           ILINDP              8               ***   
       LINEQ_CONV           IZTACN          10D-  7           cycles  
       LINEQ_EXPOR          ILMAXD              5               ***   
       LINEQ_MAXCY          ILMAXC             50               ***   
       LINEQ_TYPE           ILTYPE         DIIS         [  1]   ***   
       LOCK_ORBOCC          ILOCOC             OFF      [  0]   ***   
       MEMORY_SIZE          IMEMSZ         500000000           words  
       MEM_UNIT             IMEMU          GB           [  3]   ***   
       MRCC                 IMRCCC         OFF          [  0]   ***   
       MULTIPLICTY          IMULTP              2               ***   
       NEGEVAL              IDIE             ABORT      [  0]   ***   
       NEWNORM              INEWNO         OFF          [  0]   ***   
       NON-HF               INONHF              ON      [  1]   ***   
       NTOP_TAMP            ITOPT2             15               ***   
       NUC_MODEL            INUCMO         POINT        [  0]   ***   
       OCCUPATION           IOCCU   ESTIMATED BY SCF 
       OPEN-SHELL           IOPEN          SPIN-ORBITAL [  0]   ***   
       ORBITALS             IORBTP         SEMICANONICAL[  1]   ***   
       PARALLEL             IPARAL         ON           [  1]   ***   
       PARA_INT             IPINTS         ON           [  1]   ***   
       PARA_PRINT           IPPRIN              0               ***   
       PERT_ORB             IPTORB         STANDARD     [  0]   ***   
       POINTS               IGRDFD              0               ***   
       PRINT                IPRNT               4               ***   
       PROPS                IPROPS             OFF      [  0]   ***   
       PROP_INTEGR          IINTYP         INTERNAL     [  0]   ***   
       PSI                  IPSI           OFF          [  0]   ***   
       QUARTIC              IQUART         OFF          [  0]   ***   
       RAMAN_INT            IRAMIN         OFF          [  0]   ***   
       RAMAN_ORB            IRAMRE         UNRELAXED    [  0]   ***   
       RDO                  IRDOFM             OFF      [  0]   ***   
       REFERENCE            IREFNC             ROHF     [  2]   ***   
       RELATIVIST           IRELAT         OFF          [  0]   ***   
       RELAX_DENS           IRDENS             OFF      [  0]   ***   
       RESET_FLAGS          IRESET             OFF      [  0]   ***   
       RESTART_CC           ICCRES         OFF          [  0]   ***   
       ROT_EVEC             ROTVEC              0               ***   
       SAVE_INTS            ISVINT              ON      [  1]   ***   
       SCALE_ON             ISTCRT              0               ***   
       SCF_CONV             ISCFCV          10D- 14             ***   
       SCF_DAMPING          IDAMP               0             x 10-3  
       SCF_EXPORDE          IRPPOR              6               ***   
       SCF_EXPSTAR          IRPPLS              5               ***   
       SCF_EXTRAPO          IRPP                ON      [  1]   ***   
       SCF_MAXCYC           ISCFCY            ***              cycles 
       SCF_NOSTOP           ISCFST         OFF          [  0]   ***   
       SCF_PRINT            ISCFPR              0               ***   
       SD_FIELD             IFINSD              0             x 10-6  
       SEQUENCE             ISEQUE         OFF          [  0]   ***   
       SOPERT               IPERSO         OFF          [  0]   ***   
       SPHERICAL            IDFGHI             ON       [  1]   ***   
       SPINORBIT            ISOCAL         OFF          [  0]   ***   
       SPINROTATIO          ISRCON         OFF          [  0]   ***   
       SPIN_FLIP            ISPFLP         OFF          [  0]   ***   
       SPIN_ORBIT           ISPORB         OFF          [  0]   ***   
       SPIN_SCAL            ISCSMP         OFF          [  0]   ***   
       SUBGROUP             ISUBGP         DEFAULT      [  0]   ***   
       SUBGRPAXIS           ISBXYZ         X            [  0]   ***   
       SYMMETRY             ISYM             ON         [  0]   ***   
       SYM_CHECK            ISYMCK         OVERRIDE     [  1]   ***   
       T3_EXTRAPOL          IT3EXT         ON           [  1]   ***   
       TAMP_SUM             IEVERY              5               ***   
       TESTSUITE            ITESTS         OFF          [  0]   ***   
       THERMOCH             ITHERM         OFF          [  0]   ***   
       TOL_CHOLESK          ITOLCH          10D-  4             ***   
       TRANGRAD             IRESRM         OFF          [  0]   ***   
       TRANS_INV            ITRAIN         USE          [  0]   ***   
       TREAT_PERT           ITREAT         SIMULTANEOUS [  0]   ***   
       UIJ_THRESHO          IUIJTH              1               ***   
       UNITS                IUNITS         BOHR         [  1]   ***   
       UNOS                 IUNOS          OFF          [  0]   ***   
       UPDATE_HESS          IHUPDT         ON           [  1]   ***   
       VIBPHASE             ISETPH         STANDARD     [  0]   ***   
       VIBRATION            IVIB              NO        [  0]   ***   
       VIB_ALGORIT          IGEALG         STANDARD     [  0]   ***   
       VNATORB              IVNORB         OFF          [  0]   ***   
       VTRAN                IVTRAN         FULL/PARTIAL [  0]   ***   
       XFIELD               IXEFLD              0             x 10-6  
       XFORM_TOL            IXFTOL          10D- 18             ***   
       YFIELD               IYEFLD              0             x 10-6  
       ZFIELD               IZEFLD              0             x 10-6  
    -------------------------------------------------------------------
   2 entries found in Z-matrix 
   Job Title : TITLE                                                                           
 Variable names read by FETCHZ
  1           
  2           
  3           
  4 R         
  5           
  6           
 Atomic symbols read by FETCHZ
  1 Cl   
  2 Cl   
 Connectivity matrix read by FETCHZ
  1   0
  2   0
  3   0
  4   1
  5   0
  6   0
   There are  1 unique internal coordinates.
   Of these,  0 will be optimized.
   User supplied Z-matrix: 
--------------------------------------------------------------------------------
       SYMBOL    BOND      LENGTH    ANGLE     ANGLE     DIHED     ANGLE
                  TO      (ANGST)    WRT      (DEG)      WRT      (DEG)
--------------------------------------------------------------------------------
        Cl   
        Cl         1         R    
                  *Initial values for internal coordinates* 
                      Name             Value
                        R               3.7563975905
--------------------------------------------------------------------------------
  1  CL        17    34.96885
  2  CL        17    34.96885
   34.9688527210
   34.9688527210
 After translation to center of mass coordinates 
        0.000000000000    0.000000000000   -1.878198795265
        0.000000000000    0.000000000000    1.878198795265
  Inertia tensor (amu*bohr**2)
  246.71440    0.00000    0.00000
    0.00000  246.71440    0.00000
    0.00000    0.00000    0.00000
    Inertia tensor:
      246.714397821294    0.000000000000    0.000000000000
        0.000000000000  246.714397821294    0.000000000000
        0.000000000000    0.000000000000    0.000000000000
    Principal axis orientation for molecular system: 
        0.000000000000    0.000000000000    1.878198795265
        0.000000000000    0.000000000000   -1.878198795265
    Diagonalized inertia tensor:
      246.714397821294    0.000000000000    0.000000000000
        0.000000000000  246.714397821294    0.000000000000
        0.000000000000    0.000000000000    0.000000000000
    Eigenvectors of inertia tensor: 
        1.000000000000    0.000000000000    0.000000000000
        0.000000000000    1.000000000000    0.000000000000
        0.000000000000    0.000000000000   -1.000000000000
 factor:   60.1997200000000     
   Rotational constants (in cm-1): 
          0.2440057027             0.2440057027
   Rotational constants (in MHz): 
       7315.1079618679          7315.1079618679
  @SYMMETRY-I, Handedness of inertial frame:-1.00000
  @SYMMETRY-I, Sense of inertial frame y-axis will be changed.
  @SYMMETRY-I, The symmetry group is 2-fold degenerate.
  @SYMMETRY-I, The molecule belongs to a point group with doubly degenerate representations.
  @SYMMETRY-I, The molecule is linear.
   Principal axis orientation for molecule:
        0.000000000000    0.000000000000    1.878198795265
        0.000000000000    0.000000000000   -1.878198795265
   Reflection in plane  3 is a valid symmetry operation.
   Rotation about  3 is a valid symmetry operation 
   Reflection in plane  2 is a valid symmetry operation.
   Rotation about  2 is a valid symmetry operation 
   Reflection in plane  1 is a valid symmetry operation.
   Rotation about  1 is a valid symmetry operation 
   The molecule possesses an inversion center. 
  Symmetry bits:    7   7   1
********************************************************************************
   The full molecular point group is DXh .
   The largest Abelian subgroup of the full molecular point group is D2h .
   The computational point group is D2h .
********************************************************************************
--------------------------------------------------------------------------------
   Analysis of internal coordinates specified by Z-matrix 
--------------------------------------------------------------------------------
   *The nuclear repulsion energy is   76.935412994774126 a.u.
   *There is   1 degree of freedom within the tot. symm. molecular subspace.
   *Z-matrix requests optimization of   0 coordinates.
   *The optimization is constrained.
   *The following   1 parameters can have non-zero 
    derivatives within the totally symmetric subspace:
             R    [ 1]
   *The following   0 parameters are to be optimized:

   *The following coordinates must be varied in an  unconstrained optimization.
             R    [ 1]
--------------------------------------------------------------------------------
 ----------------------------------------------------------------
 Z-matrix   Atomic            Coordinates (in bohr)
  Symbol    Number           X              Y              Z
 ----------------------------------------------------------------
     CL       17         0.00000000     0.00000000     1.87819880
     CL       17         0.00000000     0.00000000    -1.87819880
 ----------------------------------------------------------------
   Interatomic distance matrix (Angstroms) 
 
                 CL            CL   
                [ 1]        [ 2]
  CL   [ 1]     0.00000
  CL   [ 2]     1.98780     0.00000
  Inertia tensor (amu*bohr**2)
  246.71440    0.00000    0.00000
    0.00000  246.71440    0.00000
    0.00000    0.00000    0.00000
   Rotational constants (in cm-1): 
          0.2440057027             0.0000000000
   Rotational constants (in MHz): 
       7315.1079618679             0.0000000000
  @GTFLGS-W, Keyword #GEOM not known and is ignored.
  @GTFLGS-W, Keyword #COORD not known and is ignored.
  @GTFLGS-W, Keyword #CC_PROG not known and is ignored.
  @GTFLGS-W, Keyword #DROPMO not known and is ignored.
  @GTFLGS-W, Keyword #CONTRACTION not known and is ignored.
  @GTFLGS-W, Keyword #EXCITE not known and is ignored.
  @GTFLGS-W, Keyword #ESTATE_CONV not known and is ignored.
  @GTFLGS-W, Keyword #ESTATE_SYM not known and is ignored.
  @GTFLGS-W, Keyword #SCF_DAMPING not known and is ignored.
  @GTFLGS-W, Keyword #OCCUPATION not known and is ignored.
  There are  10 frozen-core orbitals.
  There are  10 frozen-core orbitals.
  There are   84 basis functions.
 @GEOPT-W, Archive file not created for single-point calculation.
  @CHECKOUT-I, Total execution time (CPU/WALL):        0.43/       0.62 seconds.
--executable xjoda finished with status     0 in        0.72 seconds (walltime).
 --invoking executable--
/project1/nike/cfour_v2.00beta_May2019xnmol_noLABBASIS/bin/xvmol
Running with 1 threads/proc

********************************************************************************
                   INPUT FROM MOL FILE                                          
********************************************************************************
INTGRL        1    0    1    0    0    0    0    0    0
         *** CFOUR Program System (Release V0.1) *** 
TITLE
    1    3 X  Y   Z   0.10E-08              0    0
   9999.00      3.00
         17.00000000    1    4    1    1    1    1
CL#1   0.000000000000000   0.000000000000000   1.878198795265000
   14    5
   69507.9909450000       5.431489749700000E-004  0.000000000000000E+000
  0.000000000000000E+000  0.000000000000000E+000  0.000000000000000E+000
   10426.1568800000       4.199046396100000E-003  0.000000000000000E+000
  0.000000000000000E+000  0.000000000000000E+000  0.000000000000000E+000
   2373.23340610000       2.159214167900000E-002  0.000000000000000E+000
  0.000000000000000E+000  0.000000000000000E+000  0.000000000000000E+000
   671.564200710000       8.459885009400001E-002  0.000000000000000E+000
  0.000000000000000E+000  0.000000000000000E+000  0.000000000000000E+000
   218.419997900000       0.247572497240000       0.000000000000000E+000
  0.000000000000000E+000  0.000000000000000E+000  0.000000000000000E+000
   77.5722497140000       0.470169302280000       0.000000000000000E+000
  0.000000000000000E+000  0.000000000000000E+000  0.000000000000000E+000
   28.8888152770000       0.374363707160000       0.000000000000000E+000
  0.000000000000000E+000  0.000000000000000E+000  0.000000000000000E+000
   127.105271850000       0.000000000000000E+000  2.518216660300000E-002
  0.000000000000000E+000  0.000000000000000E+000  0.000000000000000E+000
   39.3395829610000       0.000000000000000E+000  0.107861124560000     
  0.000000000000000E+000  0.000000000000000E+000  0.000000000000000E+000
   7.67406799890000       0.000000000000000E+000 -0.274088215740000     
  0.000000000000000E+000  0.000000000000000E+000  0.000000000000000E+000
   3.87456276300000       0.000000000000000E+000  0.000000000000000E+000
   1.32138750140000       0.000000000000000E+000  0.000000000000000E+000
   1.83858325730000       0.000000000000000E+000  0.000000000000000E+000
  0.686369553680000       0.000000000000000E+000  0.000000000000000E+000
  0.502290575420000       0.000000000000000E+000  0.000000000000000E+000
  0.000000000000000E+000   1.00000000000000       0.000000000000000E+000
  0.179627234200000       0.000000000000000E+000  0.000000000000000E+000
  0.000000000000000E+000  0.000000000000000E+000   1.00000000000000     
    9    5
   666.504232840000       2.363266383600000E-003  0.000000000000000E+000
  0.000000000000000E+000  0.000000000000000E+000  0.000000000000000E+000
   157.642416900000       1.887930037400000E-002  0.000000000000000E+000
  0.000000000000000E+000  0.000000000000000E+000  0.000000000000000E+000
   50.2625209780000       8.720634127300000E-002  0.000000000000000E+000
  0.000000000000000E+000  0.000000000000000E+000  0.000000000000000E+000
   18.5360781050000       0.252856129700000       0.000000000000000E+000
  0.000000000000000E+000  0.000000000000000E+000  0.000000000000000E+000
   7.29405327770000       0.435071548200000       0.000000000000000E+000
  0.000000000000000E+000  0.000000000000000E+000  0.000000000000000E+000
   2.94332489950000       0.000000000000000E+000  0.350265131650000     
  0.000000000000000E+000  0.000000000000000E+000  0.000000000000000E+000
   1.04049708180000       0.000000000000000E+000  0.000000000000000E+000
   1.00000000000000       0.000000000000000E+000  0.000000000000000E+000
  0.384564150800000       0.000000000000000E+000  0.000000000000000E+000
  0.000000000000000E+000   1.00000000000000       0.000000000000000E+000
  0.130696427320000       0.000000000000000E+000  0.000000000000000E+000
  0.000000000000000E+000  0.000000000000000E+000   1.00000000000000     
    3    3
  0.339000000000000        1.00000000000000       0.000000000000000E+000
  0.000000000000000E+000
   4.61000000000000       0.000000000000000E+000   1.00000000000000     
  0.000000000000000E+000
   1.01100000000000       0.000000000000000E+000  0.000000000000000E+000
   1.00000000000000     
    1    1
  0.706000000000000        1.00000000000000     
FINISH
                                                                                
********************************************************************************

ONE- AND TWO-ELECTRON INTEGRALS OVER SYMMETRY-ADAPTED AOS ARE CALCULATED.


    BASIS FUNCTION NOT NORMALIZED:
    CENTER (AS ORDERED IN MOL FILE): ?
    ANGULAR MOMENTUM TYPE:           S
    OFFSET WITHIN ANGULAR MOMENTUM:  1
    <CHI|CHI>:                       1.1141468221

    BASIS FUNCTION NOT NORMALIZED:
    CENTER (AS ORDERED IN MOL FILE): ?
    ANGULAR MOMENTUM TYPE:           S
    OFFSET WITHIN ANGULAR MOMENTUM:  2
    <CHI|CHI>:                       0.0497181099

    BASIS FUNCTION NOT NORMALIZED:
    CENTER (AS ORDERED IN MOL FILE): ?
    ANGULAR MOMENTUM TYPE:           S
    OFFSET WITHIN ANGULAR MOMENTUM:  3
    <CHI|CHI>:                       3.8554163295

    BASIS FUNCTION NOT NORMALIZED:
    CENTER (AS ORDERED IN MOL FILE): ?
    ANGULAR MOMENTUM TYPE:           P
    OFFSET WITHIN ANGULAR MOMENTUM:  1
    <CHI|CHI>:                       0.4975889306

    BASIS FUNCTION NOT NORMALIZED:
    CENTER (AS ORDERED IN MOL FILE): ?
    ANGULAR MOMENTUM TYPE:           P
    OFFSET WITHIN ANGULAR MOMENTUM:  2
    <CHI|CHI>:                       0.1226856624
CARTESIAN GAUSSIANS ARE USED.

1 TYPES OF ATOMS
3 SYMMETRY OPERATIONS

REFLECTION IN THE YZ-PLANE
REFLECTION IN THE XZ-PLANE
REFLECTION IN THE XY-PLANE

INTEGRALS LESS THAN 1e-14 ARE NEGLECTED.

ATOMIC TYPE NUMBER 1:
---------------------

    NUCLEAR CHARGE:                       17
    NUMBER OF SYMMETRY INDEPENDENT ATOMS: 1
    HIGHEST ORBITAL TYPE:                 F

    1 GROUPS OF CGTOS OF S TYPE
    1 GROUPS OF CGTOS OF P TYPE
    1 GROUPS OF CGTOS OF D TYPE
    1 GROUPS OF CGTOS OF F TYPE

    NUCLEAR COORDINATES (IN A.U.) ARE:

    CL#1   0.000000000000000   0.000000000000000   1.878198795265000

INTERNUCLEAR DISTANCES (A):

    FOR ATOM CL#1 (COORDINATES:   0.00000   0.00000   1.87820)

    CL#1 5 DISTANCE IS   1.98780

GROUP MULTIPLICATION TABLE:

    1 2 3 4 5 6 7 8
    2 1 4 3 6 5 8 7
    3 4 1 2 7 8 5 6
    4 3 2 1 8 7 6 5
    5 6 7 8 1 2 3 4
    6 5 8 7 2 1 4 3
    7 8 5 6 3 4 1 2
    8 7 6 5 4 3 2 1

GAUSSIAN BASIS INFORMATION:

ATOM                EXPONENT       COEFFICIENTS

CL#1  1  S   
                  1   69507.990945   1.5699430   0.0000000   0.0000000   0.0000000   0.0000000
                  2   10426.156880   2.9253831   0.0000000   0.0000000   0.0000000   0.0000000
                  3    2373.233406   4.9572399   0.0000000   0.0000000   0.0000000   0.0000000
                  4     671.564201   7.5356200   0.0000000   0.0000000   0.0000000   0.0000000
                  5     218.419998   9.4975278   0.0000000   0.0000000   0.0000000   0.0000000
                  6      77.572250   8.2979906   0.0000000   0.0000000   0.0000000   0.0000000
                  7      28.888815   3.1497778   0.0000000   0.0000000   0.0000000   0.0000000
                  8     127.105272   0.0000000   3.0469726   0.0000000   0.0000000   0.0000000
                  9      39.339583   0.0000000   5.4155185   0.0000000   0.0000000   0.0000000
                 10       7.674068   0.0000000  -4.0393584   0.0000000   0.0000000   0.0000000
                 11       3.874563   0.0000000   0.0000000   1.3245601   0.0000000   0.0000000
                 12       1.838583   0.0000000   0.0000000   0.3933643   0.0000000   0.0000000
                 13       0.502291   0.0000000   0.0000000   0.0000000   0.4252324   0.0000000
                 14       0.179627   0.0000000   0.0000000   0.0000000   0.0000000   0.1966479

CL#1  5  S   
                 15   69507.990945   1.5699430   0.0000000   0.0000000   0.0000000   0.0000000
                 16   10426.156880   2.9253831   0.0000000   0.0000000   0.0000000   0.0000000
                 17    2373.233406   4.9572399   0.0000000   0.0000000   0.0000000   0.0000000
                 18     671.564201   7.5356200   0.0000000   0.0000000   0.0000000   0.0000000
                 19     218.419998   9.4975278   0.0000000   0.0000000   0.0000000   0.0000000
                 20      77.572250   8.2979906   0.0000000   0.0000000   0.0000000   0.0000000
                 21      28.888815   3.1497778   0.0000000   0.0000000   0.0000000   0.0000000
                 22     127.105272   0.0000000   3.0469726   0.0000000   0.0000000   0.0000000
                 23      39.339583   0.0000000   5.4155185   0.0000000   0.0000000   0.0000000
                 24       7.674068   0.0000000  -4.0393584   0.0000000   0.0000000   0.0000000
                 25       3.874563   0.0000000   0.0000000   1.3245601   0.0000000   0.0000000
                 26       1.838583   0.0000000   0.0000000   0.3933643   0.0000000   0.0000000
                 27       0.502291   0.0000000   0.0000000   0.0000000   0.4252324   0.0000000
                 28       0.179627   0.0000000   0.0000000   0.0000000   0.0000000   0.1966479

CL#1  1  X   
                 29     666.504233  16.1722725   0.0000000   0.0000000   0.0000000   0.0000000
                 30     157.642417  21.3099281   0.0000000   0.0000000   0.0000000   0.0000000
                 31      50.262521  23.5834932   0.0000000   0.0000000   0.0000000   0.0000000
                 32      18.536078  19.6517184   0.0000000   0.0000000   0.0000000   0.0000000
                 33       7.294053  10.5384461   0.0000000   0.0000000   0.0000000   0.0000000
                 34       2.943325   0.0000000   5.4952549   0.0000000   0.0000000   0.0000000
                 35       1.040497   0.0000000   0.0000000   1.4979288   0.0000000   0.0000000
                 36       0.384564   0.0000000   0.0000000   0.0000000   0.4316692   0.0000000
                 37       0.130696   0.0000000   0.0000000   0.0000000   0.0000000   0.1120133

CL#1  5  X   
                 38     666.504233  16.1722725   0.0000000   0.0000000   0.0000000   0.0000000
                 39     157.642417  21.3099281   0.0000000   0.0000000   0.0000000   0.0000000
                 40      50.262521  23.5834932   0.0000000   0.0000000   0.0000000   0.0000000
                 41      18.536078  19.6517184   0.0000000   0.0000000   0.0000000   0.0000000
                 42       7.294053  10.5384461   0.0000000   0.0000000   0.0000000   0.0000000
                 43       2.943325   0.0000000   5.4952549   0.0000000   0.0000000   0.0000000
                 44       1.040497   0.0000000   0.0000000   1.4979288   0.0000000   0.0000000
                 45       0.384564   0.0000000   0.0000000   0.0000000   0.4316692   0.0000000
                 46       0.130696   0.0000000   0.0000000   0.0000000   0.0000000   0.1120133

CL#1  1  Y   
                 47     666.504233  16.1722725   0.0000000   0.0000000   0.0000000   0.0000000
                 48     157.642417  21.3099281   0.0000000   0.0000000   0.0000000   0.0000000
                 49      50.262521  23.5834932   0.0000000   0.0000000   0.0000000   0.0000000
                 50      18.536078  19.6517184   0.0000000   0.0000000   0.0000000   0.0000000
                 51       7.294053  10.5384461   0.0000000   0.0000000   0.0000000   0.0000000
                 52       2.943325   0.0000000   5.4952549   0.0000000   0.0000000   0.0000000
                 53       1.040497   0.0000000   0.0000000   1.4979288   0.0000000   0.0000000
                 54       0.384564   0.0000000   0.0000000   0.0000000   0.4316692   0.0000000
                 55       0.130696   0.0000000   0.0000000   0.0000000   0.0000000   0.1120133

CL#1  5  Y   
                 56     666.504233  16.1722725   0.0000000   0.0000000   0.0000000   0.0000000
                 57     157.642417  21.3099281   0.0000000   0.0000000   0.0000000   0.0000000
                 58      50.262521  23.5834932   0.0000000   0.0000000   0.0000000   0.0000000
                 59      18.536078  19.6517184   0.0000000   0.0000000   0.0000000   0.0000000
                 60       7.294053  10.5384461   0.0000000   0.0000000   0.0000000   0.0000000
                 61       2.943325   0.0000000   5.4952549   0.0000000   0.0000000   0.0000000
                 62       1.040497   0.0000000   0.0000000   1.4979288   0.0000000   0.0000000
                 63       0.384564   0.0000000   0.0000000   0.0000000   0.4316692   0.0000000
                 64       0.130696   0.0000000   0.0000000   0.0000000   0.0000000   0.1120133

CL#1  1  Z   
                 65     666.504233  16.1722725   0.0000000   0.0000000   0.0000000   0.0000000
                 66     157.642417  21.3099281   0.0000000   0.0000000   0.0000000   0.0000000
                 67      50.262521  23.5834932   0.0000000   0.0000000   0.0000000   0.0000000
                 68      18.536078  19.6517184   0.0000000   0.0000000   0.0000000   0.0000000
                 69       7.294053  10.5384461   0.0000000   0.0000000   0.0000000   0.0000000
                 70       2.943325   0.0000000   5.4952549   0.0000000   0.0000000   0.0000000
                 71       1.040497   0.0000000   0.0000000   1.4979288   0.0000000   0.0000000
                 72       0.384564   0.0000000   0.0000000   0.0000000   0.4316692   0.0000000
                 73       0.130696   0.0000000   0.0000000   0.0000000   0.0000000   0.1120133

CL#1  5  Z   
                 74     666.504233  16.1722725   0.0000000   0.0000000   0.0000000   0.0000000
                 75     157.642417  21.3099281   0.0000000   0.0000000   0.0000000   0.0000000
                 76      50.262521  23.5834932   0.0000000   0.0000000   0.0000000   0.0000000
                 77      18.536078  19.6517184   0.0000000   0.0000000   0.0000000   0.0000000
                 78       7.294053  10.5384461   0.0000000   0.0000000   0.0000000   0.0000000
                 79       2.943325   0.0000000   5.4952549   0.0000000   0.0000000   0.0000000
                 80       1.040497   0.0000000   0.0000000   1.4979288   0.0000000   0.0000000
                 81       0.384564   0.0000000   0.0000000   0.0000000   0.4316692   0.0000000
                 82       0.130696   0.0000000   0.0000000   0.0000000   0.0000000   0.1120133

CL#1  1  XX  
                 83       0.339000   0.4293580   0.0000000   0.0000000
                 84       4.610000   0.0000000  41.3472570   0.0000000
                 85       1.011000   0.0000000   0.0000000   2.9059264

CL#1  5  XX  
                 86       0.339000   0.4293580   0.0000000   0.0000000
                 87       4.610000   0.0000000  41.3472570   0.0000000
                 88       1.011000   0.0000000   0.0000000   2.9059264

CL#1  1  XY  
                 89       0.339000   0.4293580   0.0000000   0.0000000
                 90       4.610000   0.0000000  41.3472570   0.0000000
                 91       1.011000   0.0000000   0.0000000   2.9059264

CL#1  5  XY  
                 92       0.339000   0.4293580   0.0000000   0.0000000
                 93       4.610000   0.0000000  41.3472570   0.0000000
                 94       1.011000   0.0000000   0.0000000   2.9059264

CL#1  1  XZ  
                 95       0.339000   0.4293580   0.0000000   0.0000000
                 96       4.610000   0.0000000  41.3472570   0.0000000
                 97       1.011000   0.0000000   0.0000000   2.9059264

CL#1  5  XZ  
                 98       0.339000   0.4293580   0.0000000   0.0000000
                 99       4.610000   0.0000000  41.3472570   0.0000000
                100       1.011000   0.0000000   0.0000000   2.9059264

CL#1  1  YY  
                101       0.339000   0.4293580   0.0000000   0.0000000
                102       4.610000   0.0000000  41.3472570   0.0000000
                103       1.011000   0.0000000   0.0000000   2.9059264

CL#1  5  YY  
                104       0.339000   0.4293580   0.0000000   0.0000000
                105       4.610000   0.0000000  41.3472570   0.0000000
                106       1.011000   0.0000000   0.0000000   2.9059264

CL#1  1  YZ  
                107       0.339000   0.4293580   0.0000000   0.0000000
                108       4.610000   0.0000000  41.3472570   0.0000000
                109       1.011000   0.0000000   0.0000000   2.9059264

CL#1  5  YZ  
                110       0.339000   0.4293580   0.0000000   0.0000000
                111       4.610000   0.0000000  41.3472570   0.0000000
                112       1.011000   0.0000000   0.0000000   2.9059264

CL#1  1  ZZ  
                113       0.339000   0.4293580   0.0000000   0.0000000
                114       4.610000   0.0000000  41.3472570   0.0000000
                115       1.011000   0.0000000   0.0000000   2.9059264

CL#1  5  ZZ  
                116       0.339000   0.4293580   0.0000000   0.0000000
                117       4.610000   0.0000000  41.3472570   0.0000000
                118       1.011000   0.0000000   0.0000000   2.9059264

CL#1  1  F300
                119       0.706000   2.6050176

CL#1  5  F300
                120       0.706000   2.6050176

CL#1  1  F210
                121       0.706000   2.6050176

CL#1  5  F210
                122       0.706000   2.6050176

CL#1  1  F201
                123       0.706000   2.6050176

CL#1  5  F201
                124       0.706000   2.6050176

CL#1  1  F120
                125       0.706000   2.6050176

CL#1  5  F120
                126       0.706000   2.6050176

CL#1  1  F111
                127       0.706000   2.6050176

CL#1  5  F111
                128       0.706000   2.6050176

CL#1  1  F102
                129       0.706000   2.6050176

CL#1  5  F102
                130       0.706000   2.6050176

CL#1  1  F030
                131       0.706000   2.6050176

CL#1  5  F030
                132       0.706000   2.6050176

CL#1  1  F021
                133       0.706000   2.6050176

CL#1  5  F021
                134       0.706000   2.6050176

CL#1  1  F012
                135       0.706000   2.6050176

CL#1  5  F012
                136       0.706000   2.6050176

CL#1  1  F003
                137       0.706000   2.6050176

CL#1  5  F003
                138       0.706000   2.6050176

SYMMETRY TRANSFORMATION INTO 84 SYMMETRY-ADAPTED BASIS FUNCTIONS

    IRREDUCIBLE REPRESENTATION NUMBER 1

    1    1 CL#1 S      1   1.0   2   1.0
    2    2 CL#1 S      3   1.0   4   1.0
    3    3 CL#1 S      5   1.0   6   1.0
    4    4 CL#1 S      7   1.0   8   1.0
    5    5 CL#1 S      9   1.0  10   1.0
    6    6 CL#1 Z     31   1.0  32  -1.0
    7    7 CL#1 Z     33   1.0  34  -1.0
    8    8 CL#1 Z     35   1.0  36  -1.0
    9    9 CL#1 Z     37   1.0  38  -1.0
   10   10 CL#1 Z     39   1.0  40  -1.0
   11   11 CL#1 XX    41  -1.0  42  -1.0  59  -1.0  60  -1.0  71   2.0  72   2.0
   12   12 CL#1 XX    43  -1.0  44  -1.0  61  -1.0  62  -1.0  73   2.0  74   2.0
   13   13 CL#1 XX    45  -1.0  46  -1.0  63  -1.0  64  -1.0  75   2.0  76   2.0
   14   14 CL#1 YY    41   1.0  42   1.0  59  -1.0  60  -1.0
   15   15 CL#1 YY    43   1.0  44   1.0  61  -1.0  62  -1.0
   16   16 CL#1 YY    45   1.0  46   1.0  63  -1.0  64  -1.0
   17   17 CL#1 ZZ    81  -3.0  82   3.0  91  -3.0  92   3.0  95   2.0  96  -2.0
   18   18 CL#1 ZZ    81   1.0  82  -1.0  91  -1.0  92   1.0
   19   19 CL#1 ZZ    11   1.0  12   1.0
   20   20 CL#1 F201  13   1.0  14   1.0
   21   21 CL#1 F021  15   1.0  16   1.0
   22   22 CL#1 F003  17   1.0  18   1.0

    IRREDUCIBLE REPRESENTATION NUMBER 2

   23    1 CL#1 X     19   1.0  20   1.0
   24    2 CL#1 X     53   1.0  54  -1.0
   25    3 CL#1 X     55   1.0  56  -1.0
   26    4 CL#1 X     57   1.0  58  -1.0
   27    5 CL#1 X     77  -1.0  78  -1.0  83  -1.0  84  -1.0  87   4.0  88   4.0
   28    6 CL#1 XZ    77   1.0  78   1.0  83  -3.0  84  -3.0
   29    7 CL#1 XZ    21   1.0  22   1.0
   30    8 CL#1 XZ    23   1.0  24   1.0
   31    9 CL#1 F300  25   1.0  26   1.0
   32   10 CL#1 F120  27   1.0  28   1.0
   33   11 CL#1 F102  29   1.0  30   1.0

    IRREDUCIBLE REPRESENTATION NUMBER 3

   34    1 CL#1 Y     65   1.0  66  -1.0
   35    2 CL#1 Y     67   1.0  68  -1.0
   36    3 CL#1 Y     69   1.0  70  -1.0
   37    4 CL#1 Y     79  -1.0  80  -1.0  89  -1.0  90  -1.0  93   4.0  94   4.0
   38    5 CL#1 Y     79   3.0  80   3.0  89  -1.0  90  -1.0
   39    6 CL#1 YZ    47   1.0  48   1.0
   40    7 CL#1 YZ    49   1.0  50   1.0
   41    8 CL#1 YZ    51   1.0  52   1.0
   42    9 CL#1 F210  85   1.0  86  -1.0
   43   10 CL#1 F030   1   1.0   2  -1.0
   44   11 CL#1 F012   3   1.0   4  -1.0

    IRREDUCIBLE REPRESENTATION NUMBER 4

   45    1 CL#1 XY     5   1.0   6  -1.0
   46    2 CL#1 XY     7   1.0   8  -1.0
   47    3 CL#1 XY     9   1.0  10  -1.0
   48    4 CL#1 F111  31   1.0  32   1.0

    IRREDUCIBLE REPRESENTATION NUMBER 5

   49    1 CL#1 S     33   1.0  34   1.0
   50    2 CL#1 S     35   1.0  36   1.0
   51    3 CL#1 S     37   1.0  38   1.0
   52    4 CL#1 S     39   1.0  40   1.0
   53    5 CL#1 S     41  -1.0  42   1.0  59  -1.0  60   1.0  71   2.0  72  -2.0
   54    6 CL#1 Z     43  -1.0  44   1.0  61  -1.0  62   1.0  73   2.0  74  -2.0
   55    7 CL#1 Z     45  -1.0  46   1.0  63  -1.0  64   1.0  75   2.0  76  -2.0
   56    8 CL#1 Z     41   1.0  42  -1.0  59  -1.0  60   1.0
   57    9 CL#1 Z     43   1.0  44  -1.0  61  -1.0  62   1.0
   58   10 CL#1 Z     45   1.0  46  -1.0  63  -1.0  64   1.0
   59   11 CL#1 XX    81  -3.0  82  -3.0  91  -3.0  92  -3.0  95   2.0  96   2.0
   60   12 CL#1 XX    81   1.0  82   1.0  91  -1.0  92  -1.0
   61   13 CL#1 XX    11   1.0  12  -1.0
   62   14 CL#1 YY    13   1.0  14  -1.0
   63   15 CL#1 YY    15   1.0  16  -1.0
   64   16 CL#1 YY    17   1.0  18  -1.0
   65   17 CL#1 ZZ    19   1.0  20  -1.0
   66   18 CL#1 ZZ    53   1.0  54   1.0
   67   19 CL#1 ZZ    55   1.0  56   1.0
   68   20 CL#1 F201  57   1.0  58   1.0
   69   21 CL#1 F021  77  -1.0  78   1.0  83  -1.0  84   1.0  87   4.0  88  -4.0
   70   22 CL#1 F003  77   1.0  78  -1.0  83  -3.0  84   3.0

    IRREDUCIBLE REPRESENTATION NUMBER 6

   71    1 CL#1 X     21   1.0  22  -1.0
   72    2 CL#1 X     23   1.0  24  -1.0
   73    3 CL#1 X     25   1.0  26  -1.0
   74    4 CL#1 X     27   1.0  28  -1.0
   75    5 CL#1 X     29   1.0  30  -1.0
   76    6 CL#1 XZ    65   1.0  66   1.0
   77    7 CL#1 XZ    67   1.0  68   1.0
   78    8 CL#1 XZ    69   1.0  70   1.0
   79    9 CL#1 F300  79  -1.0  80   1.0  89  -1.0  90   1.0  93   4.0  94  -4.0
   80   10 CL#1 F120  79   3.0  80  -3.0  89  -1.0  90   1.0
   81   11 CL#1 F102  47   1.0  48  -1.0

    IRREDUCIBLE REPRESENTATION NUMBER 7

   82    1 CL#1 Y     49   1.0  50  -1.0
   83    2 CL#1 Y     51   1.0  52  -1.0
   84    3 CL#1 Y     85   1.0  86   1.0
   85    4 CL#1 Y   
   86    5 CL#1 Y   
   87    6 CL#1 YZ  
   88    7 CL#1 YZ  
   89    8 CL#1 YZ  
   90    9 CL#1 F210
   91   10 CL#1 F030
   92   11 CL#1 F012

    IRREDUCIBLE REPRESENTATION NUMBER 8

   93    1 CL#1 XY  
   94    2 CL#1 XY  
   95    3 CL#1 XY  
   96    4 CL#1 F111

NUCLEAR REPULSION ENERGY:   76.9354129948 A.U.

One-electron integrals took 0.011380 seconds

  @TWOEL-I,      22778 INTEGRALS OF SYMMETRY TYPE  I I I I
  @TWOEL-I,     188235 INTEGRALS OF SYMMETRY TYPE  I J I J
  @TWOEL-I,     110932 INTEGRALS OF SYMMETRY TYPE  I I J J
  @TWOEL-I,     383046 INTEGRALS OF SYMMETRY TYPE  I J K L
  @TWOEL-I, TOTAL NUMBER OF 2-E INTEGRALS     704991

Two-electron integrals took 3.631877 seconds

Nuclear repulsion energy: 76.935412994774
--executable xvmol finished with status     0 in        4.31 seconds (walltime).
 --invoking executable--
/project1/nike/cfour_v2.00beta_May2019xnmol_noLABBASIS/bin/xvmol2ja
--executable xvmol2ja finished with status     0 in        0.06 seconds (walltime).
 --invoking executable--
/project1/nike/cfour_v2.00beta_May2019xnmol_noLABBASIS/bin/xvscf
  There are   84 functions in the AO basis.

  There are 8 irreducible representations.

       Irrep        # of functions
         1                 18
         2                 10
         3                 10
         4                  4
         5                 18
         6                 10
         7                 10
         8                  4


  Parameters for SCF calculation: 
        SCF reference function: ROHF  
  Maximum number of iterations: 9999
     Full symmetry point group: DXh 
     Computational point group: D2h 
        Initial density matrix: CORE                   
     SCF convergence tolerance: 10**(-14)
  DIIS convergence acceleration:  ON
          Latest start for DIIS:   5
                     DIIS order:   6

  Memory information:     337552 words required.
  Fock matrices are constructed from AO integral file.
 @GETMEM-I,  Allocated       2 MB of main memory.
  Initialization and symmetry analysis required      0.003 seconds.

  @INITGES-I, Occupancies from core Hamiltonian:

          Alpha population by irrep:   4    2    2    0    5    2    2    0
           Beta population by irrep:   4    2    2    0    4    2    2    0


 total no. of electrons in initial guess :  0.000000000000000E+000
 total no. of electrons in initial guess :  0.000000000000000E+000
  --------------------------------------------------------------------
  Iteration         Total Energy            Largest Density Difference
  --------------------------------------------------------------------
       0            76.935412994774126              0.0000000000D+00
   current occupation vector 
     4  2  2  0  5  2  2  0
     4  2  2  0  4  2  2  0
  processed                  22778  ao basis integrals from 
                    38  buffers.
  processed                 110932  ao basis integrals from 
                   185  buffers.
  processed                 188235  ao basis integrals from 
                   314  buffers.
       1          -827.889065711192643              0.7421303973D+00
   current occupation vector 
     4  2  2  0  5  2  2  0
     4  2  2  0  4  2  2  0
  processed                  22778  ao basis integrals from 
                    38  buffers.
  processed                 110932  ao basis integrals from 
                   185  buffers.
  processed                 188235  ao basis integrals from 
                   314  buffers.
       2          -895.943795803030980              0.1063141196D+01
   current occupation vector 
     5  2  2  0  4  2  2  0
     4  2  2  0  4  2  2  0
  processed                  22778  ao basis integrals from 
                    38  buffers.
  processed                 110932  ao basis integrals from 
                   185  buffers.
  processed                 188235  ao basis integrals from 
                   314  buffers.
       3          -913.271121006279941              0.1063262579D+01
   current occupation vector 
     5  2  2  0  4  2  2  0
     5  2  2  0  4  1  2  0
  processed                  22778  ao basis integrals from 
                    38  buffers.
  processed                 110932  ao basis integrals from 
                   185  buffers.
  processed                 188235  ao basis integrals from 
                   314  buffers.
       4          -917.168690099662285              0.5455535948D+00
   current occupation vector 
     5  2  2  0  4  2  2  0
     5  2  2  0  4  1  2  0
 
 sum over diagonal and offdiagdiagonal of C(T)*S*C for irrep
                     1
  2.275957200481571E-014  3.189237837474659E-014
 reorthoganalization of MOs is carried out
 sum over diagonal and offdiagdiagonal of C(T)*S*C for irrep
                     1
  2.109423746787797E-015 -2.857947920476299E-015
 
 sum over diagonal and offdiagdiagonal of C(T)*S*C for irrep
                     2
 -3.153033389935445E-014  7.050500177477438E-015
 reorthoganalization of MOs is carried out
 sum over diagonal and offdiagdiagonal of C(T)*S*C for irrep
                     2
 -2.220446049250313E-016 -1.074834524929089E-015
 
 sum over diagonal and offdiagdiagonal of C(T)*S*C for irrep
                     3
 -5.628830734849544E-014  5.272522676603827E-015
 reorthoganalization of MOs is carried out
 sum over diagonal and offdiagdiagonal of C(T)*S*C for irrep
                     3
  4.440892098500626E-016 -1.086142235897127E-015
 
 sum over diagonal and offdiagdiagonal of C(T)*S*C for irrep
                     4
  3.108624468950438E-015 -8.901299836105991E-017
 reorthoganalization of MOs is carried out
 sum over diagonal and offdiagdiagonal of C(T)*S*C for irrep
                     4
 -1.110223024625157E-016  3.781697177629439E-016
 
 sum over diagonal and offdiagdiagonal of C(T)*S*C for irrep
                     5
  1.492139745096210E-013  4.041250077762625E-013
 reorthoganalization of MOs is carried out
 sum over diagonal and offdiagdiagonal of C(T)*S*C for irrep
                     5
  5.773159728050814E-015  2.310742990953304E-014
 
 sum over diagonal and offdiagdiagonal of C(T)*S*C for irrep
                     6
 -3.697042672001771E-014  2.201505061057754E-014
 reorthoganalization of MOs is carried out
 sum over diagonal and offdiagdiagonal of C(T)*S*C for irrep
                     6
  4.440892098500626E-016  1.596639675121091E-015
 
 sum over diagonal and offdiagdiagonal of C(T)*S*C for irrep
                     7
 -3.441691376337985E-014  2.632120393526786E-014
 reorthoganalization of MOs is carried out
 sum over diagonal and offdiagdiagonal of C(T)*S*C for irrep
                     7
  8.881784197001252E-016 -1.798770154332706E-016
 
 sum over diagonal and offdiagdiagonal of C(T)*S*C for irrep
                     8
  9.103828801926284E-015 -9.363007331258943E-015
 reorthoganalization of MOs is carried out
 sum over diagonal and offdiagdiagonal of C(T)*S*C for irrep
                     8
 -1.110223024625157E-016  4.275009166110344E-016
  processed                  22778  ao basis integrals from 
                    38  buffers.
  processed                 110932  ao basis integrals from 
                   185  buffers.
  processed                 188235  ao basis integrals from 
                   314  buffers.
       5          -918.256221497125694              0.2160746418D+00
   current occupation vector 
     5  2  2  0  4  2  2  0
     5  2  2  0  4  1  2  0
  processed                  22778  ao basis integrals from 
                    38  buffers.
  processed                 110932  ao basis integrals from 
                   185  buffers.
  processed                 188235  ao basis integrals from 
                   314  buffers.
       6          -918.565364796526751              0.7613167131D-01
   current occupation vector 
     5  2  2  0  4  2  2  0
     5  2  2  0  4  1  2  0
  processed                  22778  ao basis integrals from 
                    38  buffers.
  processed                 110932  ao basis integrals from 
                   185  buffers.
  processed                 188235  ao basis integrals from 
                   314  buffers.
       7          -918.566992038139460              0.5517902627D-02
   current occupation vector 
     5  2  2  0  4  2  2  0
     5  2  2  0  4  1  2  0
  processed                  22778  ao basis integrals from 
                    38  buffers.
  processed                 110932  ao basis integrals from 
                   185  buffers.
  processed                 188235  ao basis integrals from 
                   314  buffers.
       8          -918.567107936149796              0.1350591121D-02
   current occupation vector 
     5  2  2  0  4  2  2  0
     5  2  2  0  4  1  2  0
  processed                  22778  ao basis integrals from 
                    38  buffers.
  processed                 110932  ao basis integrals from 
                   185  buffers.
  processed                 188235  ao basis integrals from 
                   314  buffers.
       9          -918.567111671277189              0.2453973718D-03
   current occupation vector 
     5  2  2  0  4  2  2  0
     5  2  2  0  4  1  2  0
 
 sum over diagonal and offdiagdiagonal of C(T)*S*C for irrep
                     1
  4.773959005888173E-014 -2.404280376813845E-015
 reorthoganalization of MOs is carried out
 sum over diagonal and offdiagdiagonal of C(T)*S*C for irrep
                     1
 -2.220446049250313E-016  2.309982000970547E-015
 
 sum over diagonal and offdiagdiagonal of C(T)*S*C for irrep
                     2
  2.586819647376615E-014 -8.775684572922673E-015
 reorthoganalization of MOs is carried out
 sum over diagonal and offdiagdiagonal of C(T)*S*C for irrep
                     2
  2.220446049250313E-015 -2.071229522005073E-015
 
 sum over diagonal and offdiagdiagonal of C(T)*S*C for irrep
                     3
  2.464695114667848E-014 -1.931153304959778E-015
 reorthoganalization of MOs is carried out
 sum over diagonal and offdiagdiagonal of C(T)*S*C for irrep
                     3
 -1.776356839400250E-015  1.998591283103043E-016
 
 sum over diagonal and offdiagdiagonal of C(T)*S*C for irrep
                     4
 -1.332267629550188E-015 -4.158321907296592E-016
 reorthoganalization of MOs is carried out
 sum over diagonal and offdiagdiagonal of C(T)*S*C for irrep
                     4
  7.771561172376096E-016  7.018040662498670E-016
 
 sum over diagonal and offdiagdiagonal of C(T)*S*C for irrep
                     5
  2.531308496145357E-014  4.884785990090170E-014
 reorthoganalization of MOs is carried out
 sum over diagonal and offdiagdiagonal of C(T)*S*C for irrep
                     5
  4.107825191113079E-015  6.431907033195843E-015
 
 sum over diagonal and offdiagdiagonal of C(T)*S*C for irrep
                     6
 -1.509903313490213E-014 -1.100559369618000E-014
 reorthoganalization of MOs is carried out
 sum over diagonal and offdiagdiagonal of C(T)*S*C for irrep
                     6
 -4.440892098500626E-016 -5.776971328957368E-016
 
 sum over diagonal and offdiagdiagonal of C(T)*S*C for irrep
                     7
  4.252154184314350E-014 -5.919449469018027E-015
 reorthoganalization of MOs is carried out
 sum over diagonal and offdiagdiagonal of C(T)*S*C for irrep
                     7
 -7.771561172376096E-016  2.091557777139730E-016
 
 sum over diagonal and offdiagdiagonal of C(T)*S*C for irrep
                     8
 -2.442490654175344E-015  1.736817341422420E-015
 reorthoganalization of MOs is carried out
 sum over diagonal and offdiagdiagonal of C(T)*S*C for irrep
                     8
 -2.220446049250313E-016 -2.814995415587052E-016
  processed                  22778  ao basis integrals from 
                    38  buffers.
  processed                 110932  ao basis integrals from 
                   185  buffers.
  processed                 188235  ao basis integrals from 
                   314  buffers.
      10          -918.567111700637838              0.1255838407D-04
   current occupation vector 
     5  2  2  0  4  2  2  0
     5  2  2  0  4  1  2  0
  processed                  22778  ao basis integrals from 
                    38  buffers.
  processed                 110932  ao basis integrals from 
                   185  buffers.
  processed                 188235  ao basis integrals from 
                   314  buffers.
      11          -918.567111701913404              0.3789238238D-05
   current occupation vector 
     5  2  2  0  4  2  2  0
     5  2  2  0  4  1  2  0
  processed                  22778  ao basis integrals from 
                    38  buffers.
  processed                 110932  ao basis integrals from 
                   185  buffers.
  processed                 188235  ao basis integrals from 
                   314  buffers.
      12          -918.567111701962972              0.9319698547D-06
   current occupation vector 
     5  2  2  0  4  2  2  0
     5  2  2  0  4  1  2  0
  processed                  22778  ao basis integrals from 
                    38  buffers.
  processed                 110932  ao basis integrals from 
                   185  buffers.
  processed                 188235  ao basis integrals from 
                   314  buffers.
      13          -918.567111701963427              0.1265036947D-06
   current occupation vector 
     5  2  2  0  4  2  2  0
     5  2  2  0  4  1  2  0
  processed                  22778  ao basis integrals from 
                    38  buffers.
  processed                 110932  ao basis integrals from 
                   185  buffers.
  processed                 188235  ao basis integrals from 
                   314  buffers.
      14          -918.567111701964222              0.1565078610D-07
   current occupation vector 
     5  2  2  0  4  2  2  0
     5  2  2  0  4  1  2  0
 
 sum over diagonal and offdiagdiagonal of C(T)*S*C for irrep
                     1
  5.917488721252084E-014 -8.889117129474493E-015
 reorthoganalization of MOs is carried out
 sum over diagonal and offdiagdiagonal of C(T)*S*C for irrep
                     1
 -3.330669073875470E-016 -3.644478944096046E-015
 
 sum over diagonal and offdiagdiagonal of C(T)*S*C for irrep
                     2
  1.554312234475219E-014  9.470788663153679E-015
 reorthoganalization of MOs is carried out
 sum over diagonal and offdiagdiagonal of C(T)*S*C for irrep
                     2
  7.771561172376096E-016  8.264148310758026E-016
 
 sum over diagonal and offdiagdiagonal of C(T)*S*C for irrep
                     3
  2.420286193682841E-014 -2.889513326478157E-015
 reorthoganalization of MOs is carried out
 sum over diagonal and offdiagdiagonal of C(T)*S*C for irrep
                     3
 -1.443289932012704E-015  6.895335693679916E-016
 
 sum over diagonal and offdiagdiagonal of C(T)*S*C for irrep
                     4
  9.769962616701378E-015  2.549907984414346E-016
 reorthoganalization of MOs is carried out
 sum over diagonal and offdiagdiagonal of C(T)*S*C for irrep
                     4
 -4.440892098500626E-016 -3.700246489421466E-016
 
 sum over diagonal and offdiagdiagonal of C(T)*S*C for irrep
                     5
  2.142730437526552E-014  1.843293876026220E-014
 reorthoganalization of MOs is carried out
 sum over diagonal and offdiagdiagonal of C(T)*S*C for irrep
                     5
 -4.551914400963142E-015 -1.223660565248945E-014
 
 sum over diagonal and offdiagdiagonal of C(T)*S*C for irrep
                     6
  7.105427357601002E-015  7.605081034608704E-015
 reorthoganalization of MOs is carried out
 sum over diagonal and offdiagdiagonal of C(T)*S*C for irrep
                     6
  8.881784197001252E-016  7.670181328169386E-016
 
 sum over diagonal and offdiagdiagonal of C(T)*S*C for irrep
                     7
 -2.664535259100376E-015  5.476750526645696E-015
 reorthoganalization of MOs is carried out
 sum over diagonal and offdiagdiagonal of C(T)*S*C for irrep
                     7
  6.661338147750939E-016 -2.086453759362223E-015
 
 sum over diagonal and offdiagdiagonal of C(T)*S*C for irrep
                     8
 -5.329070518200751E-015  2.007169929395258E-015
 reorthoganalization of MOs is carried out
 sum over diagonal and offdiagdiagonal of C(T)*S*C for irrep
                     8
  1.110223024625157E-016 -3.809073282484698E-016
  processed                  22778  ao basis integrals from 
                    38  buffers.
  processed                 110932  ao basis integrals from 
                   185  buffers.
  processed                 188235  ao basis integrals from 
                   314  buffers.
      15          -918.567111701965359              0.2390167460D-08
   current occupation vector 
     5  2  2  0  4  2  2  0
     5  2  2  0  4  1  2  0
  processed                  22778  ao basis integrals from 
                    38  buffers.
  processed                 110932  ao basis integrals from 
                   185  buffers.
  processed                 188235  ao basis integrals from 
                   314  buffers.
      16          -918.567111701963995              0.8313707327D-09
   current occupation vector 
     5  2  2  0  4  2  2  0
     5  2  2  0  4  1  2  0
  processed                  22778  ao basis integrals from 
                    38  buffers.
  processed                 110932  ao basis integrals from 
                   185  buffers.
  processed                 188235  ao basis integrals from 
                   314  buffers.
      17          -918.567111701962290              0.1889242096D-09
   current occupation vector 
     5  2  2  0  4  2  2  0
     5  2  2  0  4  1  2  0
  processed                  22778  ao basis integrals from 
                    38  buffers.
  processed                 110932  ao basis integrals from 
                   185  buffers.
  processed                 188235  ao basis integrals from 
                   314  buffers.
      18          -918.567111701964109              0.2446182146D-10
   current occupation vector 
     5  2  2  0  4  2  2  0
     5  2  2  0  4  1  2  0
  processed                  22778  ao basis integrals from 
                    38  buffers.
  processed                 110932  ao basis integrals from 
                   185  buffers.
  processed                 188235  ao basis integrals from 
                   314  buffers.
      19          -918.567111701964791              0.7304490346D-11
   current occupation vector 
     5  2  2  0  4  2  2  0
     5  2  2  0  4  1  2  0
 
 sum over diagonal and offdiagdiagonal of C(T)*S*C for irrep
                     1
 -7.105427357601002E-015  2.896870269320444E-014
 reorthoganalization of MOs is carried out
 sum over diagonal and offdiagdiagonal of C(T)*S*C for irrep
                     1
 -1.443289932012704E-015 -2.343783079007133E-015
 
 sum over diagonal and offdiagdiagonal of C(T)*S*C for irrep
                     2
  3.286260152890463E-014  2.179217023290814E-015
 reorthoganalization of MOs is carried out
 sum over diagonal and offdiagdiagonal of C(T)*S*C for irrep
                     2
 -1.332267629550188E-015 -3.732887549244788E-016
 
 sum over diagonal and offdiagdiagonal of C(T)*S*C for irrep
                     3
  1.010302952408892E-014 -1.077769910700841E-014
 reorthoganalization of MOs is carried out
 sum over diagonal and offdiagdiagonal of C(T)*S*C for irrep
                     3
  1.110223024625157E-016  1.593083279182446E-015
 
 sum over diagonal and offdiagdiagonal of C(T)*S*C for irrep
                     4
 -5.329070518200751E-015 -3.303360731655991E-015
 reorthoganalization of MOs is carried out
 sum over diagonal and offdiagdiagonal of C(T)*S*C for irrep
                     4
  2.220446049250313E-016  1.629691390517274E-017
 
 sum over diagonal and offdiagdiagonal of C(T)*S*C for irrep
                     5
 -1.498801083243961E-014  2.642196638213221E-015
 reorthoganalization of MOs is carried out
 sum over diagonal and offdiagdiagonal of C(T)*S*C for irrep
                     5
  7.771561172376096E-016  1.122467419114661E-014
 
 sum over diagonal and offdiagdiagonal of C(T)*S*C for irrep
                     6
  5.662137425588298E-015  2.549579221169694E-015
 reorthoganalization of MOs is carried out
 sum over diagonal and offdiagdiagonal of C(T)*S*C for irrep
                     6
  1.998401444325282E-015 -1.199482706856444E-015
 
 sum over diagonal and offdiagdiagonal of C(T)*S*C for irrep
                     7
  1.143529715363911E-014 -9.690023359939696E-015
 reorthoganalization of MOs is carried out
 sum over diagonal and offdiagdiagonal of C(T)*S*C for irrep
                     7
 -3.330669073875470E-016  4.290607540463876E-017
 
 sum over diagonal and offdiagdiagonal of C(T)*S*C for irrep
                     8
 -1.110223024625157E-014 -1.498997594887724E-015
 reorthoganalization of MOs is carried out
 sum over diagonal and offdiagdiagonal of C(T)*S*C for irrep
                     8
 -7.771561172376096E-016  2.035115240391072E-016
  processed                  22778  ao basis integrals from 
                    38  buffers.
  processed                 110932  ao basis integrals from 
                   185  buffers.
  processed                 188235  ao basis integrals from 
                   314  buffers.
      20          -918.567111701963427              0.5915719303D-12
   current occupation vector 
     5  2  2  0  4  2  2  0
     5  2  2  0  4  1  2  0
  processed                  22778  ao basis integrals from 
                    38  buffers.
  processed                 110932  ao basis integrals from 
                   185  buffers.
  processed                 188235  ao basis integrals from 
                   314  buffers.
      21          -918.567111701963881              0.2181033132D-12
   current occupation vector 
     5  2  2  0  4  2  2  0
     5  2  2  0  4  1  2  0
  processed                  22778  ao basis integrals from 
                    38  buffers.
  processed                 110932  ao basis integrals from 
                   185  buffers.
  processed                 188235  ao basis integrals from 
                   314  buffers.
      22          -918.567111701963995              0.1411093464D-12
   current occupation vector 
     5  2  2  0  4  2  2  0
     5  2  2  0  4  1  2  0
  processed                  22778  ao basis integrals from 
                    38  buffers.
  processed                 110932  ao basis integrals from 
                   185  buffers.
  processed                 188235  ao basis integrals from 
                   314  buffers.
      23          -918.567111701962745              0.2153832668D-13
   current occupation vector 
     5  2  2  0  4  2  2  0
     5  2  2  0  4  1  2  0
  processed                  22778  ao basis integrals from 
                    38  buffers.
  processed                 110932  ao basis integrals from 
                   185  buffers.
  processed                 188235  ao basis integrals from 
                   314  buffers.
      24          -918.567111701962858              0.4743427873D-13
   current occupation vector 
     5  2  2  0  4  2  2  0
     5  2  2  0  4  1  2  0
 
 sum over diagonal and offdiagdiagonal of C(T)*S*C for irrep
                     1
 -1.054711873393899E-014  4.643847876872603E-015
 reorthoganalization of MOs is carried out
 sum over diagonal and offdiagdiagonal of C(T)*S*C for irrep
                     1
 -1.221245327087672E-015 -6.190555597311396E-015
 
 sum over diagonal and offdiagdiagonal of C(T)*S*C for irrep
                     2
  1.509903313490213E-014  1.145053815743029E-014
 reorthoganalization of MOs is carried out
 sum over diagonal and offdiagdiagonal of C(T)*S*C for irrep
                     2
  1.554312234475219E-015  4.728598121779104E-016
 
 sum over diagonal and offdiagdiagonal of C(T)*S*C for irrep
                     3
  2.009503674571533E-014  5.554702837052997E-016
 reorthoganalization of MOs is carried out
 sum over diagonal and offdiagdiagonal of C(T)*S*C for irrep
                     3
 -1.776356839400250E-015  2.397075787018730E-015
 
 sum over diagonal and offdiagdiagonal of C(T)*S*C for irrep
                     4
  2.664535259100376E-015 -1.259117864225306E-015
 reorthoganalization of MOs is carried out
 sum over diagonal and offdiagdiagonal of C(T)*S*C for irrep
                     4
 -3.330669073875470E-016 -3.600432126917019E-016
 
 sum over diagonal and offdiagdiagonal of C(T)*S*C for irrep
                     5
 -4.296563105299356E-014  5.499925559430855E-015
 reorthoganalization of MOs is carried out
 sum over diagonal and offdiagdiagonal of C(T)*S*C for irrep
                     5
 -1.032507412901396E-014 -3.070669308414110E-014
 
 sum over diagonal and offdiagdiagonal of C(T)*S*C for irrep
                     6
  6.772360450213455E-015  7.345962227199283E-015
 reorthoganalization of MOs is carried out
 sum over diagonal and offdiagdiagonal of C(T)*S*C for irrep
                     6
 -2.109423746787797E-015  6.149715370766025E-016
 
 sum over diagonal and offdiagdiagonal of C(T)*S*C for irrep
                     7
  1.887379141862766E-015 -7.579522371497473E-015
 reorthoganalization of MOs is carried out
 sum over diagonal and offdiagdiagonal of C(T)*S*C for irrep
                     7
  2.220446049250313E-016  4.722114226222553E-016
 
 sum over diagonal and offdiagdiagonal of C(T)*S*C for irrep
                     8
 -2.442490654175344E-015 -1.258352146440989E-016
 reorthoganalization of MOs is carried out
 sum over diagonal and offdiagdiagonal of C(T)*S*C for irrep
                     8
  3.330669073875470E-016  2.746216340270002E-016
  processed                  22778  ao basis integrals from 
                    38  buffers.
  processed                 110932  ao basis integrals from 
                   185  buffers.
  processed                 188235  ao basis integrals from 
                   314  buffers.
      25          -918.567111701964564              0.5723199692D-13
   current occupation vector 
     5  2  2  0  4  2  2  0
     5  2  2  0  4  1  2  0

  SCF has converged.

 Density matrix saved to file den.dat
 total alpha spin electron number:   17.0000000000000     
 total  beta spin electron number:   16.0000000000000     
  processed                  22778  ao basis integrals from 
                    38  buffers.
  processed                 110932  ao basis integrals from 
                   185  buffers.
  processed                 188235  ao basis integrals from 
                   314  buffers.
     E(ROHF)=      -918.567111701964905              0.2303712776D-14


  Final occupancies:

     Alpha population by irrep:   5    2    2    0    4    2    2    0
      Beta population by irrep:   5    2    2    0    4    1    2    0



       The average multiplicity is    2.0000000
  The expectation value of S**2 is    0.7500000

 @PUTMOS-I, Writing converged MOs to NEWMOS. 
 @PUTMOS-I, Symmetry   1 Full Blocks  4 Partial Blocksize   2
 @PUTMOS-I, Symmetry   2 Full Blocks  2 Partial Blocksize   2
 @PUTMOS-I, Symmetry   3 Full Blocks  2 Partial Blocksize   2
 @PUTMOS-I, Symmetry   4 Full Blocks  1 Partial Blocksize   0
 @PUTMOS-I, Symmetry   5 Full Blocks  4 Partial Blocksize   2
 @PUTMOS-I, Symmetry   6 Full Blocks  2 Partial Blocksize   2
 @PUTMOS-I, Symmetry   7 Full Blocks  2 Partial Blocksize   2
 @PUTMOS-I, Symmetry   8 Full Blocks  1 Partial Blocksize   0
  @DMPJOB-I, Rotating orbitals to semicanonical basis.
             *** Eigenvalues correspond to new basis. ***

--------------------------------------------------------------------------------
Eigenvalue   -105.254549   -105.254546    -10.972953    -10.972782     -8.447355
 Symmetry        PI            PI            SGg+          SGu+          PI      
--------------------------------------------------------------------------------
   1 S         0.7067945     0.7067753     0.2066267     0.2066256     0.0000000
   1 S        -0.0209070    -0.0208568     0.1599438     0.1599746     0.0000000
   1 S        -0.0051344    -0.0050271    -0.5854963    -0.5854741     0.0000000
   1 S         0.0018510     0.0014507    -0.0100153    -0.0103119     0.0000000
   1 S        -0.0016182    -0.0005652     0.0009359     0.0020447     0.0000000
   1 PX        0.0000000     0.0000000     0.0000000     0.0000000     0.5012658
   1 PY        0.0000000     0.0000000     0.0000000     0.0000000     0.0000000
   1 PZ       -0.0000661    -0.0000725     0.0017187     0.0017482     0.0000000
   1 PX        0.0000000     0.0000000     0.0000000     0.0000000     0.2485137
   1 PY        0.0000000     0.0000000     0.0000000     0.0000000     0.0000000
   1 PZ        0.0000537     0.0000704     0.0015554     0.0016360     0.0000000
   1 PX        0.0000000     0.0000000     0.0000000     0.0000000     0.0424357
   1 PY        0.0000000     0.0000000     0.0000000     0.0000000     0.0000000
   1 PZ       -0.0000660    -0.0000629     0.0003109     0.0000647     0.0000000
   1 PX        0.0000000     0.0000000     0.0000000     0.0000000    -0.0039609
   1 PY        0.0000000     0.0000000     0.0000000     0.0000000     0.0000000
   1 PZ        0.0001125    -0.0000411     0.0002626     0.0001433     0.0000000
   1 PX        0.0000000     0.0000000     0.0000000     0.0000000     0.0010714
   1 PY        0.0000000     0.0000000     0.0000000     0.0000000     0.0000000
   1 PZ        0.0005942     0.0000521    -0.0001105    -0.0007273     0.0000000
   1 DX2       0.0000763     0.0000319    -0.0000273    -0.0000199     0.0000000
   1 DXY       0.0000000     0.0000000     0.0000000     0.0000000     0.0000000
   1 DXZ       0.0000000     0.0000000     0.0000000     0.0000000     0.0000068
   1 DY2       0.0000766     0.0000325    -0.0001083    -0.0001340     0.0000000
   1 DYZ       0.0000000     0.0000000     0.0000000     0.0000000     0.0000000
   1 DZZ      -0.0001529    -0.0000644     0.0001356     0.0001540     0.0000000
   1 DX2       0.0000033     0.0000048    -0.0000326    -0.0000325     0.0000000
   1 DXY       0.0000000     0.0000000     0.0000000     0.0000000     0.0000000
   1 DXZ       0.0000000     0.0000000     0.0000000     0.0000000    -0.0005426
   1 DY2       0.0000045     0.0000059     0.0003365     0.0003362     0.0000000
   1 DYZ       0.0000000     0.0000000     0.0000000     0.0000000     0.0000000
   1 DZZ      -0.0000078    -0.0000107    -0.0003038    -0.0003037     0.0000000
   1 DX2      -0.0000171    -0.0000217     0.0000322     0.0000076     0.0000000
   1 DXY       0.0000000     0.0000000     0.0000000     0.0000000     0.0000000
   1 DXZ       0.0000000     0.0000000     0.0000000     0.0000000    -0.0001317
   1 DY2      -0.0000219    -0.0000264     0.0001284     0.0001037     0.0000000
   1 DYZ       0.0000000     0.0000000     0.0000000     0.0000000     0.0000000
   1 DZZ       0.0000389     0.0000481    -0.0001606    -0.0001113     0.0000000
   1 FX3       0.0000000     0.0000000     0.0000000     0.0000000    -0.0000121
   1 FX2Y      0.0000000     0.0000000     0.0000000     0.0000000     0.0000000
   1 FX2Z     -0.0000057    -0.0000188     0.0000059    -0.0000414     0.0000000
   1 FXY2      0.0000000     0.0000000     0.0000000     0.0000000    -0.0000635
   1 FXYZ      0.0000000     0.0000000     0.0000000     0.0000000     0.0000000
   1 FXZ2      0.0000000     0.0000000     0.0000000     0.0000000     0.0000997
   1 FY3       0.0000000     0.0000000     0.0000000     0.0000000     0.0000000
   1 FY2Z     -0.0000060    -0.0000192    -0.0000118    -0.0000426     0.0000000
   1 FYZ2      0.0000000     0.0000000     0.0000000     0.0000000     0.0000000
[...]
   The AA contribution to the correlation energy is:   -0.0471370 a.u.
   The BB contribution to the correlation energy is:   -0.0449055 a.u.
   The AB contribution to the correlation energy is:   -0.3140992 a.u.
   The total correlation energy is -0.406141684992 a.u.
   The total correlation energy is -0.406141684992 a.u.
  Current DIIS expansion coefficients : 
 [   1]-0.0916207973 [   2] 1.2286188194 [   3] 0.0002015501 [   4] 0.0284344771
 [   5]-0.1656340493
  Convergence information after    17 iterations: 
  Largest element of residual vector : -0.14956985E-08.
  Largest element of DIIS residual   : -0.71709731E-09.
  W(mnij) AA contribution =  0.0064099148 a.u.
  W(mnij) BB contribution =  0.0072408952 a.u.
  W(mnij) AB contribution =  0.0726554028 a.u.
  W(abef) AA contribution =  0.0087975513 a.u.
  W(abef) BB contribution =  0.0099059292 a.u.
  W(abef) AB contribution =  0.0964965932 a.u.
  W(mbej) AA contribution =  -0.0160112695 a.u.
  W(mbej) BB contribution =  -0.0182487936 a.u.
  W(mbej) AB contribution = -0.2440812893 a.u.
   After  18 iterations, amplitude changes are:
    -------------------------------------------------------------------
                 Spin      RMS          Max.      Max. change for
     Amplitude   Case     Change       Change       i    j    a    b
    -------------------------------------------------------------------
        T1        AA    0.0000000000-0.0000000001    2         8
        T1        BB    0.0000000000 0.0000000002    4        28
        T2        AA    0.0000000000-0.0000000001    6    3   41    8
        T2        BB    0.0000000000 0.0000000002    3    2   54   40
        T2        AB    0.0000000000-0.0000000005    7    6   41   40
    -------------------------------------------------------------------
   The AA contribution to the correlation energy is:   -0.0471370 a.u.
   The BB contribution to the correlation energy is:   -0.0449055 a.u.
   The AB contribution to the correlation energy is:   -0.3140992 a.u.
   The total correlation energy is -0.406141685046 a.u.
   The total correlation energy is -0.406141685046 a.u.
  Current DIIS expansion coefficients : 
 [   1]-0.0687346364 [   2]-0.0895038448 [   3] 1.1470905455 [   4] 0.0031091055
 [   5] 0.0080388302
  Convergence information after    18 iterations: 
  Largest element of residual vector : -0.50041214E-09.
  Largest element of DIIS residual   : -0.38902823E-09.
  Amplitude equations converged in    18iterations.
   The AA contribution to the correlation energy is:   -0.0471370 a.u.
   The BB contribution to the correlation energy is:   -0.0449055 a.u.
   The AB contribution to the correlation energy is:   -0.3140992 a.u.
   The total correlation energy is -0.406141685038 a.u.
   The total correlation energy is -0.406141685038 a.u.
   The CC iterations have converged.

            ----------------------------------------------
                     Projected spin multiplicities: 
            ----------------------------------------------
             <0|S^2|0>                  =    0.7500000000.
             <0|S^2 (T2+T1**2) |0>      =    0.0000000000.
             <0|S^2 T1|0>               =    0.0000000000.
             Projected <0|S^2 exp(T)|0> =    0.7500000000.
             Approximate spin mult.     =    2.0000000000.
            ----------------------------------------------
   Largest T1 amplitudes for spin case AA:
   i       a                 i       a                 i       a    
-----------------------------------------------------------------------------
[  3      22    ] 0.02952 [  5      41    ] 0.01984 [  3      21    ] 0.01983
[  5      43    ]-0.01971 [  2      11    ]-0.01474 [  1       9    ]-0.01226
[  4      29    ]-0.01128 [  2       9    ]-0.01023 [  2      10    ] 0.00893
[  1      11    ] 0.00852 [  3      24    ] 0.00816 [  6      56    ] 0.00699
[  3      26    ] 0.00664 [  2      16    ]-0.00609 [  7      63    ] 0.00577
-----------------------------------------------------------------------------
   Norm of T1AA vector (       72 symmetry allowed elements):  0.0577910485.
-----------------------------------------------------------------------------
   Largest T2 amplitudes for spin case AA:
   i   j   a   b             i   j   a   b             i   j   a   b
-----------------------------------------------------------------------------
[  6   2  41  21]-0.02584 [  7   2  41  29]-0.02566 [  4   3  37   9] 0.02372
[  7   6  71  43] 0.02356 [  6   4  71   9]-0.02059 [  7   3  43  37]-0.02048
[  6   4  43  37] 0.02014 [  7   3  71   9] 0.01994 [  3   2  21   8]-0.01930
[  7   6  37   9] 0.01925 [  4   2  29   8]-0.01768 [  7   2  41  30]-0.01575
[  4   3  71  43] 0.01560 [  5   3  41  21] 0.01384 [  7   6  29  21]-0.01363
-----------------------------------------------------------------------------
   Norm of T2AA vector (     5901 symmetry allowed elements):  0.1252460998.
-----------------------------------------------------------------------------
   Largest T1 amplitudes for spin case BB:
   i       a                 i       a                 i       a    
-----------------------------------------------------------------------------
[  2      10    ]-0.01892 [  3      21    ]-0.01891 [  4      28    ]-0.01548
[  3      20    ]-0.01494 [  5      43    ] 0.01458 [  2       7    ] 0.01274
[  5      42    ] 0.01028 [  1       8    ] 0.00850 [  2       9    ] 0.00831
[  1       7    ] 0.00766 [  4      29    ]-0.00729 [  2      14    ] 0.00652
[  5      44    ]-0.00549 [  5      40    ] 0.00508 [  3      23    ]-0.00497
-----------------------------------------------------------------------------
   Norm of T1BB vector (       64 symmetry allowed elements):  0.0469620122.
-----------------------------------------------------------------------------
   Largest T2 amplitudes for spin case BB:
   i   j   a   b             i   j   a   b             i   j   a   b
-----------------------------------------------------------------------------
[  3   2  54  40] 0.07718 [  6   2  40  28]-0.02566 [  6   3  54  28] 0.02490
[  6   3  54  29] 0.02489 [  4   3  36   8] 0.02346 [  3   2  54  41]-0.02304
[  6   3  71   8] 0.01940 [  6   3  42  36]-0.01926 [  4   2  28   7]-0.01848
[  6   2  40  29]-0.01722 [  3   2  20   7]-0.01600 [  5   3  40  20] 0.01447
[  4   3  71  42] 0.01439 [  5   3  54   8] 0.01392 [  4   3  28  20]-0.01337
-----------------------------------------------------------------------------
   Norm of T2BB vector (     4376 symmetry allowed elements):  0.1407544767.
-----------------------------------------------------------------------------
   Largest T2 amplitudes for spin case AB:
       _       _                 _       _                 _       _
   i   j   a   b             i   j   a   b             i   j   a   b
-----------------------------------------------------------------------------
[  2   3  41  54] 0.09153 [  2   2  41  40]-0.08965 [  6   3  22  54]-0.03649
[  6   3  21  54]-0.03499 [  7   6  41  40]-0.03235 [  3   3  41  40]-0.03019
[  2   5  21  54]-0.03012 [  2   2  41  41] 0.02910 [  6   5  43  54] 0.02848
[  4   4  29  28]-0.02808 [  7   3  30  54]-0.02802 [  7   5  71  54]-0.02778
[  2   2  42  40] 0.02749 [  7   6  29  28]-0.02724 [  3   3  21  20]-0.02700
-----------------------------------------------------------------------------
   Norm of T2AB vector (    24718 symmetry allowed elements):  0.3735740138.
-----------------------------------------------------------------------------
       Summary of iterative solution of CC equations 
      -----------------------------------------------------------
                       Correlation           Total
       Iteration         Energy              Energy
      -----------------------------------------------------------
            0        -0.379609724938    -918.946721426903  DIIS 
            1        -0.392876423275    -918.959988125240  DIIS 
            2        -0.404230519029    -918.971342220994  DIIS 
            3        -0.404866634663    -918.971978336628  DIIS 
            4        -0.406069297700    -918.973180999665  DIIS 
            5        -0.406141271356    -918.973252973321  DIIS 
            6        -0.406142373232    -918.973254075197  DIIS 
            7        -0.406141507815    -918.973253209780  DIIS 
            8        -0.406140666830    -918.973252368794  DIIS 
            9        -0.406141684378    -918.973253386343  DIIS 
           10        -0.406141561985    -918.973253263949  DIIS 
           11        -0.406141677113    -918.973253379077  DIIS 
           12        -0.406141679023    -918.973253380988  DIIS 
           13        -0.406141682808    -918.973253384773  DIIS 
           14        -0.406141684672    -918.973253386637  DIIS 
           15        -0.406141684829    -918.973253386794  DIIS 
           16        -0.406141685180    -918.973253387145  DIIS 
           17        -0.406141684992    -918.973253386957  DIIS 
           18        -0.406141685038    -918.973253387003  DIIS 
      -----------------------------------------------------------
      A miracle has come to pass. The CC iterations have converged.
 @DIMT3-I, Dimensions of T3 amplitudes : 
               # abc          # ijk       Symmetry    Spin 
                     6121              2     1          1
                     6000              4     2          1
                     6000              4     3          1
                     5848              6     4          1
                     6088              5     5          1
                     6000              4     6          1
                     6000              4     7          1
                     5848              6     8          1
                    19501             15     1          2
                    18854             14     2          2
                    18764             16     3          2
                    18088             15     4          2
                    19468             18     5          2
                    18821             17     6          2
                    18764             16     7          2
                    18088             15     8          2
                    19781             14     1          3
                    19180             11     2          3
                    19000             15     3          3
                    18368             12     4          3
                    19748             16     5          3
                    19181             10     6          3
                    19000             15     7          3
                    18368             12     8          3
                     6401              1     1          4
                     6326              1     2          4
                     6236              3     3          4
                     6128              3     4          4
                     6368              3     5          4
                     6293              3     6          4
                     6236              3     7          4
                     6128              3     8          4
 @DIMT3-I, Dimensions of T3 amplitudes : 
               # abc          # ijk       Symmetry    Spin 
                     6121              2     1          1
                     6000              4     2          1
                     6000              4     3          1
                     5848              6     4          1
                     6088              5     5          1
                     6000              4     6          1
                     6000              4     7          1
                     5848              6     8          1
                    19501             15     1          2
                    18854             14     2          2
                    18764             16     3          2
                    18088             15     4          2
                    19468             18     5          2
                    18821             17     6          2
                    18764             16     7          2
                    18088             15     8          2
                    19781             14     1          3
                    19180             11     2          3
                    19000             15     3          3
                    18368             12     4          3
                    19748             16     5          3
                    19181             10     6          3
                    19000             15     7          3
                    18368             12     8          3
                     6401              1     1          4
                     6326              1     2          4
                     6236              3     3          4
                     6128              3     4          4
                     6368              3     5          4
                     6293              3     6          4
                     6236              3     7          4
                     6128              3     8          4
 @TRPS-I, Welcome to TRPS. Watch your RUs ! 
 @TRPS-I, Method is CCSD(T) 
 @TRPS-I, Calculation type is energy 
 @TRPS-I, Reference function information : 
          Reference function is general non-HF 
 @TRPS-I, Reference function is ROHF 
 @TRPS-I, INT1 is true 
 @TRPS-I, INT2 is false 
 @TRPS-I, Lengths of ijka integrals. #1       1248
                                     #2        806
                                     #3       2252
                                     #4       2624
                                    Max       2624
 @INITRP-I, Initializing W intermediate lists. 
 @TSPABCI-I, AbIc/AbcI record transposition. 
 @TSPABCI-I, (O,v) ---> (v,O) transposition. 
 @TSPABCI-I, In-core algorithm is being used. 
 @TSPABCI-I, In-core algorithm is being used. 
 @TSPABCI-I, In-core algorithm is being used. 
 @TSPABCI-I, In-core algorithm is being used. 
 @TSPABCI-I, In-core algorithm is being used. 
 @TSPABCI-I, In-core algorithm is being used. 
 @TSPABCI-I, In-core algorithm is being used. 
 @TSPABCI-I, In-core algorithm is being used. 
 @TRPS-I, Available memory in integer words    499959040
          Number of pre-allocated words for TRPS14         8031
          Number of free words for TRPS14    499951009
 @TRPS14-I, Spin case AAA 
 @TRPS14-I, Number of free integer words  499951009
            Number of free double words   499951009
            Ratio                                 1
 @TRPS14-I, E4TAAA      -0.000438392079
 @TRPS14-I, E5ST A   -0.000001850558851
 @TRPS14-I, E4ST A   -0.000003141260133
 @TRPS-I, Available memory in integer words    499959040
          Number of pre-allocated words for TRPS14         8025
          Number of free words for TRPS14    499951015
 @TRPS14-I, Spin case BBB 
 @TRPS14-I, Number of free integer words  499951015
            Number of free double words   499951015
            Ratio                                 1
 @TRPS14-I, E4TBBB      -0.000680905248
 @TRPS14-I, E5ST B    0.000013084732765
 @TRPS14-I, E4ST B   -0.000000335732271
 @SETOOOV-I, Some OOOV lists are being transposed. 
 @TRPS-I, Available memory in integer words    499959040
          Number of pre-allocated words for TRPS2        21244
          Number of free words for TRPS2    499937796
 @TRPS2-I, Spin case AAB 
 @TRPS2-I, Number of free integer words  499937796
           Number of free double  words  499937796
           Ratio                                 1
 @TRPS2-I, E4TBAA      -0.009795094372
 @TRPS2-I, E5ST A    0.000039347065435
 @TRPS2-I, E5ST B    0.000024149866045
 @TRPS2-I, E4ST A   -0.000018045430255
 @TRPS2-I, E4ST B   -0.000015909661205
 @SETOOOV-I, Some OOOV lists are being transposed. 
 @TSPABCI2-I, (Alpha,Beta) ---> (Beta,Alpha). 
 @TSPABCI2-I, In-core algorithm is being used. 
 @TSPABCI2-I, In-core algorithm is being used. 
 @TSPABCI2-I, In-core algorithm is being used. 
 @TSPABCI2-I, In-core algorithm is being used. 
 @TSPABCI2-I, In-core algorithm is being used. 
 @TSPABCI2-I, In-core algorithm is being used. 
 @TSPABCI2-I, In-core algorithm is being used. 
 @TSPABCI2-I, In-core algorithm is being used. 
 @TSPABCI2-I, In-core algorithm is being used. 
 @TSPABCI2-I, In-core algorithm is being used. 
 @TSPABCI2-I, In-core algorithm is being used. 
 @TSPABCI2-I, In-core algorithm is being used. 
 @TSPABCI2-I, In-core algorithm is being used. 
 @TSPABCI2-I, In-core algorithm is being used. 
 @TSPABCI2-I, In-core algorithm is being used. 
 @TSPABCI2-I, In-core algorithm is being used. 
 @AT2IAB-I, Some AbIj lists are being altered. 
 @TRPS-I, Available memory in integer words    499959040
          Number of pre-allocated words for TRPS3        52840
          Number of free words for TRPS3    499906200
 @TRPS3-I, Spin case BBA 
 @TRPS3-I, Number of free integer words  499906200
           Number of free double  words  499906200
           Ratio                                 1
 @TRPS3-I, E4TBBA      -0.010392833505
 @TRPS3-I, E5ST A    0.000089113258952
 @TRPS3-I, E5ST B    0.000058052448086
 @TRPS3-I, E4ST A   -0.000028460887954
 @TRPS3-I, E4ST B   -0.000049406165716
 @TSPABCI2-I, (Beta,Alpha) ---> (Alpha,Beta). 
 @TSPABCI2-I, In-core algorithm is being used. 
 @TSPABCI2-I, In-core algorithm is being used. 
 @TSPABCI2-I, In-core algorithm is being used. 
 @TSPABCI2-I, In-core algorithm is being used. 
 @TSPABCI2-I, In-core algorithm is being used. 
 @TSPABCI2-I, In-core algorithm is being used. 
 @TSPABCI2-I, In-core algorithm is being used. 
 @TSPABCI2-I, In-core algorithm is being used. 
 @TSPABCI2-I, In-core algorithm is being used. 
 @TSPABCI2-I, In-core algorithm is being used. 
 @TSPABCI2-I, In-core algorithm is being used. 
 @TSPABCI2-I, In-core algorithm is being used. 
 @TSPABCI2-I, In-core algorithm is being used. 
 @TSPABCI2-I, In-core algorithm is being used. 
 @TSPABCI2-I, In-core algorithm is being used. 
 @TSPABCI2-I, In-core algorithm is being used. 
 @AT2IAB-I, Some AbIj lists are being altered. 
 @TSPABCI-I, AbIc/AbcI record transposition. 
 @TSPABCI-I, (v,O) ---> (O,v) transposition. 
 @TSPABCI-I, In-core algorithm is being used. 
 @TSPABCI-I, In-core algorithm is being used. 
 @TSPABCI-I, In-core algorithm is being used. 
 @TSPABCI-I, In-core algorithm is being used. 
 @TSPABCI-I, In-core algorithm is being used. 
 @TSPABCI-I, In-core algorithm is being used. 
 @TSPABCI-I, In-core algorithm is being used. 
 @TSPABCI-I, In-core algorithm is being used. 
 @CCENRG-I, CCSD/QCISD energy will now be evaluated. 
 @CCENRG-I, Correlation energies. ECCAA       -0.047136963415
                                  ECCBB       -0.044905489986
                                  ECCAB       -0.314099231638
                                  Total       -0.406141685038
 @CCENRG-I, Reference   energy    -918.567111701965
            CCSD/QCISD energy     -918.973253387003
          E4T (T(CCSD)) = -0.021307225204
          E5ST          =  0.000147165707
          E4ST          = -0.000077867054
          In other words  
          <T3[2](Dagger) D3  T3[2]> = -0.021307225204
          <T1   (Dagger) Q1 WT3[2]> =  0.000147165707
          <T2   (Dagger) Q2 FT3[2]> = -0.000077867054
        E(CCSD)           =    -918.973253387003
        E(CCSD(T))        =    -918.994491313554
  @CHECKOUT-I, Total execution time (CPU/WALL):        6.69/       6.82 seconds.
--executable xvcc finished with status     0 in        7.03 seconds (walltime).
  The final electronic energy is      -918.994491313553681 a.u. 
  This computation required                           17.20 seconds (walltime).
--- SharcNET Job Epilogue ---
Job completed successfully.
               jobid: 1968087
               resid: 3436242
         exit status: 0
      allocated time: 18.2799
           user time: 10.22
         system time: 2.74
peak rss=212426752; peak vsz=212426752 (bytes)
atime=18.2799; utime=10.22; stime=2.74; exit=0
