 --invoking executable--
/cvmfs/restricted.computecanada.ca/easybuild/software/2020/avx2/Compiler/intel2020/cfour/2.1/bin/xjoda


   *************************************************************************
         <<<     CCCCCC     CCCCCC   |||     CCCCCC     CCCCCC   >>>
       <<<      CCC        CCC       |||    CCC        CCC         >>>
      <<<      CCC        CCC        |||   CCC        CCC            >>>
    <<<        CCC        CCC        |||   CCC        CCC              >>>
      <<<      CCC        CCC        |||   CCC        CCC            >>>
       <<<      CCC        CCC       |||    CCC        CCC         >>>
         <<<     CCCCCC     CCCCCC   |||     CCCCCC     CCCCCC   >>>
   *************************************************************************

     ****************************************************************
     * CFOUR Coupled-Cluster techniques for Computational Chemistry *
     ****************************************************************
 

   Department of Chemistry                Institut fuer Physikalische Chemie
   University of Florida                  Universitaet Mainz
   Gainesville, FL 32611, USA             D-55099 Mainz, Germany

   Department of Chemistry                Fakultaet fuer Chemie und Biowiss.
   Johns Hopkins University               Karlsruher Institut fuer Technologie
   Baltimore, MD 21218, USA               D-76131 Karlsruhe, Germany

   Department of Chemistry                Department of Physical Chemistry
   Southern Methodist University          Eotvos Lorand University
   Dallas, TX 75275, USA                  H-1053 Budapest, Hungary

 
                       Version 2.1
 
                     gra330                                            
                     Sun 24 Mar 2024 03:45:32 PM EDT                   
                     integer*8 version is running
 
********************************************************************************
*                          Input from ZMAT file                                *
********************************************************************************
Test                                                                            
N                                                                               
                                                                                
*ACES2(CALC=CCSD(T)                                                             
#FROZEN_CORE=ON                                                                 
#DROPMO=1                                                                       
#INPUT_MRCC=OFF                                                                 
#CC_PROG=MRCC                                                                   
XFORM_TOL=18                                                                    
SAVE_INTS=ON                                                                    
SCF_EXPORDER=6                                                                  
SCF_EXPSTART=5                                                                  
#SCF_DAMPING=1000                                                               
SCF_EXTRAPOLATION=ON                                                            
SCF_CONV=10                                                                     
SCF_MAXCYC=9999                                                                 
CC_CONV=10                                                                      
CC_MAXCYC=999                                                                   
T3_EXTRAPOL=ON                                                                  
REFERENCE=ROHF                                                                  
CHARGE=+0                                                                       
MULT=4                                                                          
ABCDTYPE=STANDARD                                                               
OCCUPATION=2-1-1-0-1-0-0-0/2-0-0-0-0-0-0-0                                      
MEM=30                                                                          
MEM_UNIT=GB                                                                     
BASIS=SPECIAL)                                                                  
                                                                                
N:aCV6Z-EMOLP                                                                   
                                                                                
********************************************************************************
  @GTFLGS-W, Keyword #FROZEN_CORE not known and is ignored.
  @GTFLGS-W, Keyword #DROPMO not known and is ignored.
  @GTFLGS-W, Keyword #INPUT_MRCC not known and is ignored.
  @GTFLGS-W, Keyword #CC_PROG not known and is ignored.
  @GTFLGS-W, Keyword #SCF_DAMPING not known and is ignored.
    -------------------------------------------------------------------
                    CFOUR Control Parameters 
    -------------------------------------------------------------------
        External           Internal           Value            Units
          Name               Name
    -------------------------------------------------------------------
       ABCDTYPE             IABCDT         STANDARD    [  0]    ***   
       ANHARMONIC           IANHAR         OFF         [  0]    ***   
       ANH_ALGORIT          IANALG         STANDARD    [  0]    ***   
       ANH_DERIVAT          IANDER         SECOND      [  1]    ***   
       ANH_MODE             ANHMOD         VIBRATION   [  0]    ***   
       ANH_STEPSIZ          ICUBST             50000          x 10-6  
       ANH_SYMMETR          IANHSM         ABELIAN     [  0]    ***   
       AO_LADDERS           IAOLAD         SINGLEPASS  [  1]    ***   
       AV_SCF               IAVSCF         OFF         [  0]    ***   
       BASIS                IBASIS         SPECIAL     [  0]    ***   
       BOTHVECTORS          BOTHVC         OFF         [  0]    ***   
       BOX_POTENT           IPIAB          OFF         [  0]    ***   
       BREIT                IBREIT         OFF         [  0]    ***   
       BRUCK_CONV           IBRTOL          10D-  4             ***   
       BRUECKNER            IBRKNR         OFF         [  0]    ***   
       BUFFERSIZE           IBUFFS              4096            ***   
       CACHE_RECS           ICHREC             10               ***   
       CALCLEVEL            ICLLVL         CCSD(T)     [ 22]    ***   
       CCORBOPT             ICCORB         OFF         [  0]  x 0.01  
       CC_CONV              ICCCNV          10D- 10             ***   
       CC_EXPORDER          ICCEOR              5               ***   
       CC_EXTRAPOL          ICCEXT         DIIS        [  1]    ***   
       CC_GUESS             ICCGES         MP2         [  0]    ***   
       CC_MAXCYC            ICCCYC            999              cycles 
       CC_PROGRAM           ICCPRO         VCC         [  0]    ***   
       CHARGE               ICHRGE              0               ***   
       CHOLESKY             ICHOLE         OFF         [  0]    ***   
       CIS_CONV             ICISTL              5               ***   
       COMM_SIZE            IPSIZE            ***               ***   
       CONSTANT             ICONST         OLD         [  1]    ***   
       CONTINUUM            ICONTU         NONE        [  0]    ***   
       CONTRACTION          ICNTYP         GENERAL     [  1]    ***   
       COORDINATES          ICOORD         INTERNAL    [  0]    ***   
       CPHF_CONVER          ICPHFT          10D- 16             ***   
       CPHF_MAXCYC          ICPHFC             64              cycles 
       CUBIC                ICUBIC         OFF         [  0]    ***   
       CURVILINEAR          ICURVY         OFF         [  0]    ***   
       DBOC                 IDBOC          OFF         [  0]    ***   
       DCT                  IDCT           OFF         [  0]    ***   
       DERIV_LEV            IDRLVL         ZERO        [  0]    ***   
       DEVMEM_SIZE          IDVMEM         *********           MByte  
       DIAG_MRCC            IEOMST          10D-  0             ***   
       DIFF_TYPE            IDIFTY         RELAXED     [  0]    ***   
       DIRECT               IDIRCT         OFF         [  0]    ***   
       DROPMO               IDRPMO      NONE         
       ECP                  IECP           OFF         [  0]    ***   
       EIGENVECTOR          IVEC                1               ***   
       EL_ANHARM            IELANH         OFF         [  0]    ***   
       EOMFOLLOW            IEOMSR         ENERGY      [  0]    ***   
       EOMIP                IEOMIP         OFF         [  0]    ***   
       EOMLEVEL             HBARFM         SAME        [  0]    ***   
       EOM_MRCC             IMRCCE         NEW         [  1]    ***   
       EOM_NONIT            EOMNON         OFF         [  0]    ***   
       EOM_NSING            IEOMSI          10D-  0             ***   
       EOM_NSTATES          IMRCCD         DAVIDSON    [  0]    ***   
       EOM_NTRIP            IEOMTR          10D-  0             ***   
       EOM_ORDER            IEXORD         ENERGY      [  0]    ***   
       EOM_PROPSTA          IEOMST              0               ***   
       ESTATE_CONV          IEXTOL          10D-  5             ***   
       ESTATE_DIAG          IEXDIG         ITERATIVE   [  0]    ***   
       ESTATE_LOCK          IESLOC         ON          [  1]    ***   
       ESTATE_MAXC          IEXMXC             40               ***   
       ESTATE_PROP          IEXPRP         OFF         [  0]    ***   
       EVAL_HESS            IRECAL              0            # of cyc.
       EXCITATION           IEXCIT              0               ***   
       EXCITE               IEXCIT         NONE        [  0]    ***   
       EXTERN_POT           IEXPOT         OFF         [  0]    ***   
       FCGRADNEW            IFCGNW         OFF         [  0]    ***   
       FC_FIELD             IFINFC              0             x 10-6  
       FD_CALTYPE           IFDCAL         GRADONLY    [  0]    ***   
       FD_PROJECT           IFDPRJ         OFF         [  1]    ***   
       FD_STEPSIZE          IDISFD              0            10-4 bohr
       FD_USEGROUP          IFDGRP         FULL        [  0]    ***   
       FILE_RECSIZ          IFLREC              4096           words  
       FINITE_PERT          IFIPER              0             x 10-6  
       FIXGEOM              IFIXGM         OFF         [  0]    ***   
       FOCK                 IFOCK          AO          [  1]    ***   
       FREQ_ALGORI          IVIALG         STANDARD    [  0]    ***   
       FROZEN_CORE          IFROCO         OFF         [  0]    ***   
       GAMMA_ABCD           IGABCD         STORE       [  0]    ***   
       GAMMA_ABCI           IGABCI         STORE       [  0]    ***   
       GENBAS_1             IGNBS1              0               ***   
       GENBAS_2             IGNBS2              0               ***   
       GENBAS_3             IGNBS3              0               ***   
       GENBAS_4             IGNBS4              0               ***   
       GEO_CONV             ICONTL              5              H/bohr 
       GEO_MAXCYC           IOPTCY             50               ***   
       GEO_MAXSTEP          IMXSTP            300            millibohr
       GEO_METHOD           INR            SINGLE_POINT[  5]    ***   
       GIAO                 IGIAO          OFF         [  1]    ***   
       GIMIC                IGIMIC         OFF         [  0]    ***   
       GRID                 IGRID          OFF         [  0]    ***   
       GRID_ALGO            IGALGO         SERIAL      [  0]    ***   
       GUESS                IGUESS         MOREAD      [  0]    ***   
       HBAR                 IHBAR          OFF         [  0]    ***   
       HESS_TYPE            IHESTP         SCF         [  0]    ***   
       HF2_FILE             IHF2Fl         USE         [  1]    ***   
       HFSTABILITY          ISTABL         OFF         [  0]    ***   
       INCORE               INCORE         OFF         [  0]    ***   
       INPUT_MRCC           IMRCC          ON          [  1]    ***   
       INTEGRALS            INTTYP         VMOL        [  1]    ***   
       JODA_PRINT           IJPRNT              0               ***   
       KEYWORD_OUT          IDMPKW         NO          [  0]    ***   
       LINDEP_TOL           ILINDP              8               ***   
       LINEQ_CONV           IZTACN          10D-  7           cycles  
       LINEQ_EXPOR          ILMAXD              5               ***   
       LINEQ_MAXCY          ILMAXC            100               ***   
       LINEQ_TYPE           ILTYPE         DIIS        [  1]    ***   
       LOCK_ORBOCC          ILOCOC         OFF         [  0]    ***   
       MEMORY_SIZE          IMEMSZ         *********           words  
       MEM_UNIT             IMEMU          GB          [  3]    ***   
       MRCC                 IMRCCC         OFF         [  0]    ***   
       MULTIPLICTY          IMULTP              4               ***   
       NACOUPLING           IVCOUP         OFF         [  0]    ***   
       NEGEVAL              IDIE           ABORT       [  0]    ***   
       NEWNORM              INEWNO         OFF         [  0]    ***   
       NON-HF               INONHF         ON          [  1]    ***   
       NTOP_TAMP            ITOPT2             15               ***   
       NUC_MODEL            INUCMO         POINT       [  0]    ***   
       OCCUPATION           IOCCU  A   2,  1,  1,  0,  1,  0,  0,  0,
                                   B   2,  0,  0,  0,  0,  0,  0,  0,
       OPEN-SHELL           IOPEN          SPIN-ORBITAL[  0]    ***   
       OPTVIB               IOPTVB         OFF         [  0]    ***   
       ORBITALS             IORBTP         SEMICANONICA[  1]    ***   
       PARALLEL             IPARAL         ON          [  1]    ***   
       PARA_INT             IPINTS         ON          [  1]    ***   
       PARA_PRINT           IPPRIN              0               ***   
       PERT_ORB             IPTORB         STANDARD    [  0]    ***   
       POINTS               IGRDFD              0               ***   
       PRINT                IPRNT               0               ***   
       PROPS                IPROPS         OFF         [  0]    ***   
       PROP_INTEGR          IINTYP         INTERNAL    [  0]    ***   
       PSI                  IPSI           OFF         [  0]    ***   
       QC_ALG               IQCALG         FLM         [  0]    ***   
       QC_LINALG            IQCLIN         TRIDIAG     [  2]    ***   
       QC_MAXCYC            IQCMAX          10D-100           cycles  
       QC_MAXSCFCY          IQCMSC          10D- 15           cycles  
       QC_RTRUST            IQCRTR          10D-  0           x 10-3  
       QC_SKIPSCF           IQCSKI         OFF         [  0]    ***   
       QC_START             IQCSTA          10D-  1             ***   
       QRHFGUESS            IQGUES         OFF         [  0]    ***   
       QUARTIC              IQUART         OFF         [  0]    ***   
       RAMAN_INT            IRAMIN         OFF         [  0]    ***   
       RAMAN_ORB            IRAMRE         UNRELAXED   [  0]    ***   
       RDO                  IRDOFM         OFF         [  0]    ***   
       REDUCE_REPR          REDREP         Ir          [  0]    ***   
       REFERENCE            IREFNC         ROHF        [  2]    ***   
       RELATIVIST           IRELAT         OFF         [  0]    ***   
       RELAX_DENS           IRDENS         OFF         [  0]    ***   
       RESET_FLAGS          IRESET         OFF         [  0]    ***   
       RESTART_CC           ICCRES         OFF         [  0]    ***   
       ROT_EVEC             ROTVEC              0               ***   
       SAVE_INTS            ISVINT         ON          [  1]    ***   
       SCALE_ON             ISTCRT              0               ***   
       SCF_CONV             ISCFCV          10D- 10             ***   
       SCF_DAMPING          IDAMP               0             x 10-3  
       SCF_EXPORDE          IRPPOR              6               ***   
       SCF_EXPSTAR          IRPPLS              5               ***   
       SCF_EXTRAPO          IRPP           ON          [  1]    ***   
       SCF_MAXCYC           ISCFCY            ***              cycles 
       SCF_NOSTOP           ISCFST         OFF         [  0]    ***   
       SCF_PRINT            ISCFPR              0               ***   
       SCF_PROG             ISCFPR         SCF         [  0]    ***   
       SD_FIELD             IFINSD              0             x 10-6  
       SOPERT               IPERSO         OFF         [  0]    ***   
       SPHERICAL            IDFGHI         ON          [  1]    ***   
       SPINORBIT            ISOCAL         OFF         [  0]    ***   
       SPINROTATIO          ISRCON         OFF         [  0]    ***   
       SPIN_FLIP            ISPFLP         OFF         [  0]    ***   
       SPIN_ORBIT           ISPORB         OFF         [  0]    ***   
       SPIN_SCAL            ISCSMP         OFF         [  0]    ***   
       STEEPSCALE           ISTPSC              1000          x 10-3  
       SUBGROUP             ISUBGP         DEFAULT     [  0]    ***   
       SUBGRPAXIS           ISBXYZ         X           [  0]    ***   
       SYMMETRY             ISYM           ON          [  0]    ***   
       SYM_CHECK            ISYMCK         OVERRIDE    [  1]    ***   
       T3_EXTRAPOL          IT3EXT         ON          [  1]    ***   
       T4_EXTRAPOL          IT4EXP         OFF         [  0]    ***   
       TAMP_SUM             IEVERY              5               ***   
       TESTSUITE            ITESTS         OFF         [  0]    ***   
       THERMOCH             ITHERM         OFF         [  0]    ***   
       TOL_CHOLESK          ITOLCH          10D-  4             ***   
       TRANGRAD             IRESRM         OFF         [  0]    ***   
       TRANS_INV            ITRAIN         USE         [  0]    ***   
       TREAT_PERT           ITREAT         SIMULTANEOUS[  0]    ***   
       TRIP_ALGORI          ITRALG         NORMAL      [  0]    ***   
       UIJ_THRESHO          IUIJTH              1               ***   
       UNITS                IUNITS         ANGSTROM    [  0]    ***   
       UNOS                 IUNOS          OFF         [  0]    ***   
       UPDATE_HESS          IHUPDT         ON          [  1]    ***   
       VIBPHASE             ISETPH         STANDARD    [  0]    ***   
       VIBRATION            IVIB           NO          [  0]    ***   
       VIB_ALGORIT          IGEALG         STANDARD    [  0]    ***   
       VNATORB              IVNORB         OFF         [  0]    ***   
       VTRAN                IVTRAN         FULL/PARTIAL[  0]    ***   
       XFIELD               IXEFLD              0             x 10-6  
       XFORM_TOL            IXFTOL          10D- 18             ***   
       YFIELD               IYEFLD              0             x 10-6  
       ZFIELD               IZEFLD              0             x 10-6  
       ZSCALE_EXP           IZEXPS         OFF         [  0]    ***   
    -------------------------------------------------------------------
   1 entries found in Z-matrix 
   Job Title : Test                                                                            
   Rotational constants (in cm-1): 

   Rotational constants (in MHz): 

********************************************************************************
   The full molecular point group is I h .
   The largest Abelian subgroup of the full molecular point group is D2h .
   The computational point group is D2h .
********************************************************************************
  ECPDATA file not present.   Using default ECPDATA. 
  @GTFLGS-W, Keyword #FROZEN_CORE not known and is ignored.
  @GTFLGS-W, Keyword #DROPMO not known and is ignored.
  @GTFLGS-W, Keyword #INPUT_MRCC not known and is ignored.
  @GTFLGS-W, Keyword #CC_PROG not known and is ignored.
  @GTFLGS-W, Keyword #SCF_DAMPING not known and is ignored.
  There are  279 basis functions.
 @GEOPT-W, Archive file not created for single-point calculation.
 @CHECKOUT-I, Total execution time (CPU/WALL):        0.32/       1.42 seconds.
--executable xjoda finished with status     0 in        1.73 seconds (walltime).
 --invoking executable--
/cvmfs/restricted.computecanada.ca/easybuild/software/2020/avx2/Compiler/intel2020/cfour/2.1/bin/xvmol
 SERIAL VERSION OF MOLECULE STARTED
********************************************************************************
                    INPUT FROM MOL FILE
********************************************************************************
INTGRL        1    0    1    0    0    0    0    0    0                         
         *** CFOUR Program System (Release V0.1) ***                            
Test                                                                            
    1    3 X  Y   Z   0.10E-08              0    0                              
   9999.00      3.00                                                            
          7.00000000    1    7    1    1    1    1    1    1    1               
N #1   0.000000000000000   0.000000000000000   0.000000000000000                
   22   13                                                                      
   432300.000000000       5.500000000000000E-006 -1.200000000000000E-006        
  0.000000000000000E+000  0.000000000000000E+000  0.000000000000000E+000        
  0.000000000000000E+000  0.000000000000000E+000  0.000000000000000E+000        
  0.000000000000000E+000  0.000000000000000E+000  0.000000000000000E+000        
  0.000000000000000E+000  0.000000000000000E+000                                
   64700.0000000000       4.350000000000000E-005 -9.500000000000001E-006        
  0.000000000000000E+000  0.000000000000000E+000  0.000000000000000E+000        
  0.000000000000000E+000  0.000000000000000E+000  0.000000000000000E+000        
  0.000000000000000E+000  0.000000000000000E+000  0.000000000000000E+000        
  0.000000000000000E+000  0.000000000000000E+000                                
   14720.0000000000       2.289000000000000E-004 -5.050000000000000E-005        
  0.000000000000000E+000  0.000000000000000E+000  0.000000000000000E+000        
  0.000000000000000E+000  0.000000000000000E+000  0.000000000000000E+000        
  0.000000000000000E+000  0.000000000000000E+000  0.000000000000000E+000        
  0.000000000000000E+000  0.000000000000000E+000                                
   4170.00000000000       9.650000000000000E-004 -2.126000000000000E-004        
  0.000000000000000E+000  0.000000000000000E+000  0.000000000000000E+000        
  0.000000000000000E+000  0.000000000000000E+000  0.000000000000000E+000        
  0.000000000000000E+000  0.000000000000000E+000  0.000000000000000E+000        
  0.000000000000000E+000  0.000000000000000E+000                                
   1361.00000000000       3.502100000000000E-003 -7.753000000000000E-004        
  0.000000000000000E+000  0.000000000000000E+000  0.000000000000000E+000        
  0.000000000000000E+000  0.000000000000000E+000  0.000000000000000E+000        
  0.000000000000000E+000  0.000000000000000E+000  0.000000000000000E+000        
  0.000000000000000E+000  0.000000000000000E+000                                
   491.200000000000       1.129210000000000E-002 -2.506200000000000E-003        
  0.000000000000000E+000  0.000000000000000E+000  0.000000000000000E+000        
  0.000000000000000E+000  0.000000000000000E+000  0.000000000000000E+000        
  0.000000000000000E+000  0.000000000000000E+000  0.000000000000000E+000        
  0.000000000000000E+000  0.000000000000000E+000                                
   191.600000000000       3.261280000000000E-002 -7.365200000000000E-003        
  0.000000000000000E+000  0.000000000000000E+000  0.000000000000000E+000        
  0.000000000000000E+000  0.000000000000000E+000  0.000000000000000E+000        
  0.000000000000000E+000  0.000000000000000E+000  0.000000000000000E+000        
  0.000000000000000E+000  0.000000000000000E+000                                
   79.4100000000000       8.329720000000000E-002 -1.930160000000000E-002        
  0.000000000000000E+000  0.000000000000000E+000  0.000000000000000E+000        
  0.000000000000000E+000  0.000000000000000E+000  0.000000000000000E+000        
  0.000000000000000E+000  0.000000000000000E+000  0.000000000000000E+000        
  0.000000000000000E+000  0.000000000000000E+000                                
   34.5300000000000       0.179985600000000      -4.471730000000000E-002        
  0.000000000000000E+000  0.000000000000000E+000  0.000000000000000E+000        
  0.000000000000000E+000  0.000000000000000E+000  0.000000000000000E+000        
  0.000000000000000E+000  0.000000000000000E+000  0.000000000000000E+000        
  0.000000000000000E+000  0.000000000000000E+000                                
   15.5800000000000       0.305003500000000      -8.606640000000000E-002        
  0.000000000000000E+000  0.000000000000000E+000  0.000000000000000E+000        
  0.000000000000000E+000  0.000000000000000E+000  0.000000000000000E+000        
  0.000000000000000E+000  0.000000000000000E+000  0.000000000000000E+000        
  0.000000000000000E+000  0.000000000000000E+000                                
   7.23200000000000       0.341159300000000      -0.133296200000000             
  0.000000000000000E+000  0.000000000000000E+000  0.000000000000000E+000        
  0.000000000000000E+000  0.000000000000000E+000  0.000000000000000E+000        
  0.000000000000000E+000  0.000000000000000E+000  0.000000000000000E+000        
  0.000000000000000E+000  0.000000000000000E+000                                
   3.38200000000000       0.000000000000000E+000  0.000000000000000E+000        
   1.00000000000000       0.000000000000000E+000  0.000000000000000E+000        
  0.000000000000000E+000  0.000000000000000E+000  0.000000000000000E+000        
  0.000000000000000E+000  0.000000000000000E+000  0.000000000000000E+000        
  0.000000000000000E+000  0.000000000000000E+000                                
   1.36900000000000       0.000000000000000E+000  0.000000000000000E+000        
  0.000000000000000E+000   1.00000000000000       0.000000000000000E+000        
  0.000000000000000E+000  0.000000000000000E+000  0.000000000000000E+000        
  0.000000000000000E+000  0.000000000000000E+000  0.000000000000000E+000        
  0.000000000000000E+000  0.000000000000000E+000                                
  0.624800000000000       0.000000000000000E+000  0.000000000000000E+000        
  0.000000000000000E+000  0.000000000000000E+000   1.00000000000000             
  0.000000000000000E+000  0.000000000000000E+000  0.000000000000000E+000        
  0.000000000000000E+000  0.000000000000000E+000  0.000000000000000E+000        
  0.000000000000000E+000  0.000000000000000E+000                                
  0.274700000000000       0.000000000000000E+000  0.000000000000000E+000        
  0.000000000000000E+000  0.000000000000000E+000  0.000000000000000E+000        
   1.00000000000000       0.000000000000000E+000  0.000000000000000E+000        
  0.000000000000000E+000  0.000000000000000E+000  0.000000000000000E+000        
  0.000000000000000E+000  0.000000000000000E+000                                
  0.119200000000000       0.000000000000000E+000  0.000000000000000E+000        
  0.000000000000000E+000  0.000000000000000E+000  0.000000000000000E+000        
  0.000000000000000E+000   1.00000000000000       0.000000000000000E+000        
  0.000000000000000E+000  0.000000000000000E+000  0.000000000000000E+000        
  0.000000000000000E+000  0.000000000000000E+000                                
   246.262000000000       0.000000000000000E+000  0.000000000000000E+000        
  0.000000000000000E+000  0.000000000000000E+000  0.000000000000000E+000        
  0.000000000000000E+000  0.000000000000000E+000   1.00000000000000             
  0.000000000000000E+000  0.000000000000000E+000  0.000000000000000E+000        
  0.000000000000000E+000  0.000000000000000E+000                                
   124.187000000000       0.000000000000000E+000  0.000000000000000E+000        
  0.000000000000000E+000  0.000000000000000E+000  0.000000000000000E+000        
  0.000000000000000E+000  0.000000000000000E+000  0.000000000000000E+000        
   1.00000000000000       0.000000000000000E+000  0.000000000000000E+000        
  0.000000000000000E+000  0.000000000000000E+000                                
   62.6260000000000       0.000000000000000E+000  0.000000000000000E+000        
  0.000000000000000E+000  0.000000000000000E+000  0.000000000000000E+000        
  0.000000000000000E+000  0.000000000000000E+000  0.000000000000000E+000        
  0.000000000000000E+000   1.00000000000000       0.000000000000000E+000        
  0.000000000000000E+000  0.000000000000000E+000                                
   31.5810000000000       0.000000000000000E+000  0.000000000000000E+000        
  0.000000000000000E+000  0.000000000000000E+000  0.000000000000000E+000        
  0.000000000000000E+000  0.000000000000000E+000  0.000000000000000E+000        
  0.000000000000000E+000  0.000000000000000E+000   1.00000000000000             
  0.000000000000000E+000  0.000000000000000E+000                                
   15.9260000000000       0.000000000000000E+000  0.000000000000000E+000        
  0.000000000000000E+000  0.000000000000000E+000  0.000000000000000E+000        
  0.000000000000000E+000  0.000000000000000E+000  0.000000000000000E+000        
  0.000000000000000E+000  0.000000000000000E+000  0.000000000000000E+000        
   1.00000000000000       0.000000000000000E+000                                
  4.714000000000000E-002  0.000000000000000E+000  0.000000000000000E+000        
  0.000000000000000E+000  0.000000000000000E+000  0.000000000000000E+000        
  0.000000000000000E+000  0.000000000000000E+000  0.000000000000000E+000        
  0.000000000000000E+000  0.000000000000000E+000  0.000000000000000E+000        
  0.000000000000000E+000   1.00000000000000                                     
   16   12                                                                      
   415.900000000000       1.484000000000000E-004  0.000000000000000E+000        
  0.000000000000000E+000  0.000000000000000E+000  0.000000000000000E+000        
  0.000000000000000E+000  0.000000000000000E+000  0.000000000000000E+000        
  0.000000000000000E+000  0.000000000000000E+000  0.000000000000000E+000        
  0.000000000000000E+000                                                        
   98.6100000000000       1.276300000000000E-003  0.000000000000000E+000        
  0.000000000000000E+000  0.000000000000000E+000  0.000000000000000E+000        
  0.000000000000000E+000  0.000000000000000E+000  0.000000000000000E+000        
  0.000000000000000E+000  0.000000000000000E+000  0.000000000000000E+000        
  0.000000000000000E+000                                                        
   31.9200000000000       6.702400000000000E-003  0.000000000000000E+000        
  0.000000000000000E+000  0.000000000000000E+000  0.000000000000000E+000        
  0.000000000000000E+000  0.000000000000000E+000  0.000000000000000E+000        
  0.000000000000000E+000  0.000000000000000E+000  0.000000000000000E+000        
  0.000000000000000E+000                                                        
   12.0000000000000       2.526170000000000E-002  0.000000000000000E+000        
  0.000000000000000E+000  0.000000000000000E+000  0.000000000000000E+000        
  0.000000000000000E+000  0.000000000000000E+000  0.000000000000000E+000        
  0.000000000000000E+000  0.000000000000000E+000  0.000000000000000E+000        
  0.000000000000000E+000                                                        
   4.91900000000000       7.518940000000000E-002  0.000000000000000E+000        
  0.000000000000000E+000  0.000000000000000E+000  0.000000000000000E+000        
  0.000000000000000E+000  0.000000000000000E+000  0.000000000000000E+000        
  0.000000000000000E+000  0.000000000000000E+000  0.000000000000000E+000        
  0.000000000000000E+000                                                        
   2.14800000000000       0.000000000000000E+000   1.00000000000000             
  0.000000000000000E+000  0.000000000000000E+000  0.000000000000000E+000        
  0.000000000000000E+000  0.000000000000000E+000  0.000000000000000E+000        
  0.000000000000000E+000  0.000000000000000E+000  0.000000000000000E+000        
  0.000000000000000E+000                                                        
  0.969600000000000       0.000000000000000E+000  0.000000000000000E+000        
   1.00000000000000       0.000000000000000E+000  0.000000000000000E+000        
  0.000000000000000E+000  0.000000000000000E+000  0.000000000000000E+000        
  0.000000000000000E+000  0.000000000000000E+000  0.000000000000000E+000        
  0.000000000000000E+000                                                        
  0.439900000000000       0.000000000000000E+000  0.000000000000000E+000        
  0.000000000000000E+000   1.00000000000000       0.000000000000000E+000        
  0.000000000000000E+000  0.000000000000000E+000  0.000000000000000E+000        
  0.000000000000000E+000  0.000000000000000E+000  0.000000000000000E+000        
  0.000000000000000E+000                                                        
  0.197800000000000       0.000000000000000E+000  0.000000000000000E+000        
  0.000000000000000E+000  0.000000000000000E+000   1.00000000000000             
  0.000000000000000E+000  0.000000000000000E+000  0.000000000000000E+000        
  0.000000000000000E+000  0.000000000000000E+000  0.000000000000000E+000        
  0.000000000000000E+000                                                        
  8.603000000000000E-002  0.000000000000000E+000  0.000000000000000E+000        
  0.000000000000000E+000  0.000000000000000E+000  0.000000000000000E+000        
   1.00000000000000       0.000000000000000E+000  0.000000000000000E+000        
  0.000000000000000E+000  0.000000000000000E+000  0.000000000000000E+000        
  0.000000000000000E+000                                                        
   270.142000000000       0.000000000000000E+000  0.000000000000000E+000        
  0.000000000000000E+000  0.000000000000000E+000  0.000000000000000E+000        
  0.000000000000000E+000   1.00000000000000       0.000000000000000E+000        
  0.000000000000000E+000  0.000000000000000E+000  0.000000000000000E+000        
  0.000000000000000E+000                                                        
   123.465000000000       0.000000000000000E+000  0.000000000000000E+000        
  0.000000000000000E+000  0.000000000000000E+000  0.000000000000000E+000        
  0.000000000000000E+000  0.000000000000000E+000   1.00000000000000             
  0.000000000000000E+000  0.000000000000000E+000  0.000000000000000E+000        
  0.000000000000000E+000                                                        
   56.4280000000000       0.000000000000000E+000  0.000000000000000E+000        
  0.000000000000000E+000  0.000000000000000E+000  0.000000000000000E+000        
  0.000000000000000E+000  0.000000000000000E+000  0.000000000000000E+000        
   1.00000000000000       0.000000000000000E+000  0.000000000000000E+000        
  0.000000000000000E+000                                                        
   25.7900000000000       0.000000000000000E+000  0.000000000000000E+000        
  0.000000000000000E+000  0.000000000000000E+000  0.000000000000000E+000        
  0.000000000000000E+000  0.000000000000000E+000  0.000000000000000E+000        
  0.000000000000000E+000   1.00000000000000       0.000000000000000E+000        
  0.000000000000000E+000                                                        
   11.7870000000000       0.000000000000000E+000  0.000000000000000E+000        
  0.000000000000000E+000  0.000000000000000E+000  0.000000000000000E+000        
  0.000000000000000E+000  0.000000000000000E+000  0.000000000000000E+000        
  0.000000000000000E+000  0.000000000000000E+000   1.00000000000000             
  0.000000000000000E+000                                                        
  3.150000000000000E-002  0.000000000000000E+000  0.000000000000000E+000        
  0.000000000000000E+000  0.000000000000000E+000  0.000000000000000E+000        
  0.000000000000000E+000  0.000000000000000E+000  0.000000000000000E+000        
  0.000000000000000E+000  0.000000000000000E+000  0.000000000000000E+000        
   1.00000000000000                                                             
   10   10                                                                      
   6.71700000000000        1.00000000000000       0.000000000000000E+000        
  0.000000000000000E+000  0.000000000000000E+000  0.000000000000000E+000        
  0.000000000000000E+000  0.000000000000000E+000  0.000000000000000E+000        
  0.000000000000000E+000  0.000000000000000E+000                                
   2.89600000000000       0.000000000000000E+000   1.00000000000000             
  0.000000000000000E+000  0.000000000000000E+000  0.000000000000000E+000        
  0.000000000000000E+000  0.000000000000000E+000  0.000000000000000E+000        
  0.000000000000000E+000  0.000000000000000E+000                                
   1.24900000000000       0.000000000000000E+000  0.000000000000000E+000        
   1.00000000000000       0.000000000000000E+000  0.000000000000000E+000        
  0.000000000000000E+000  0.000000000000000E+000  0.000000000000000E+000        
  0.000000000000000E+000  0.000000000000000E+000                                
  0.538000000000000       0.000000000000000E+000  0.000000000000000E+000        
  0.000000000000000E+000   1.00000000000000       0.000000000000000E+000        
  0.000000000000000E+000  0.000000000000000E+000  0.000000000000000E+000        
  0.000000000000000E+000  0.000000000000000E+000                                
  0.232000000000000       0.000000000000000E+000  0.000000000000000E+000        
  0.000000000000000E+000  0.000000000000000E+000   1.00000000000000             
  0.000000000000000E+000  0.000000000000000E+000  0.000000000000000E+000        
  0.000000000000000E+000  0.000000000000000E+000                                
   199.920000000000       0.000000000000000E+000  0.000000000000000E+000        
  0.000000000000000E+000  0.000000000000000E+000  0.000000000000000E+000        
   1.00000000000000       0.000000000000000E+000  0.000000000000000E+000        
  0.000000000000000E+000  0.000000000000000E+000                                
   87.1110000000000       0.000000000000000E+000  0.000000000000000E+000        
  0.000000000000000E+000  0.000000000000000E+000  0.000000000000000E+000        
  0.000000000000000E+000   1.00000000000000       0.000000000000000E+000        
  0.000000000000000E+000  0.000000000000000E+000                                
   37.9570000000000       0.000000000000000E+000  0.000000000000000E+000        
  0.000000000000000E+000  0.000000000000000E+000  0.000000000000000E+000        
  0.000000000000000E+000  0.000000000000000E+000   1.00000000000000             
  0.000000000000000E+000  0.000000000000000E+000                                
   16.5390000000000       0.000000000000000E+000  0.000000000000000E+000        
  0.000000000000000E+000  0.000000000000000E+000  0.000000000000000E+000        
  0.000000000000000E+000  0.000000000000000E+000  0.000000000000000E+000        
   1.00000000000000       0.000000000000000E+000                                
  8.740000000000001E-002  0.000000000000000E+000  0.000000000000000E+000        
  0.000000000000000E+000  0.000000000000000E+000  0.000000000000000E+000        
  0.000000000000000E+000  0.000000000000000E+000  0.000000000000000E+000        
  0.000000000000000E+000   1.00000000000000                                     
    8    8                                                                      
   3.82900000000000        1.00000000000000       0.000000000000000E+000        
  0.000000000000000E+000  0.000000000000000E+000  0.000000000000000E+000        
  0.000000000000000E+000  0.000000000000000E+000  0.000000000000000E+000        
   1.79500000000000       0.000000000000000E+000   1.00000000000000             
  0.000000000000000E+000  0.000000000000000E+000  0.000000000000000E+000        
  0.000000000000000E+000  0.000000000000000E+000  0.000000000000000E+000        
  0.841000000000000       0.000000000000000E+000  0.000000000000000E+000        
   1.00000000000000       0.000000000000000E+000  0.000000000000000E+000        
  0.000000000000000E+000  0.000000000000000E+000  0.000000000000000E+000        
  0.394000000000000       0.000000000000000E+000  0.000000000000000E+000        
  0.000000000000000E+000   1.00000000000000       0.000000000000000E+000        
  0.000000000000000E+000  0.000000000000000E+000  0.000000000000000E+000        
   105.346000000000       0.000000000000000E+000  0.000000000000000E+000        
  0.000000000000000E+000  0.000000000000000E+000   1.00000000000000             
  0.000000000000000E+000  0.000000000000000E+000  0.000000000000000E+000        
   37.5300000000000       0.000000000000000E+000  0.000000000000000E+000        
  0.000000000000000E+000  0.000000000000000E+000  0.000000000000000E+000        
   1.00000000000000       0.000000000000000E+000  0.000000000000000E+000        
   13.3700000000000       0.000000000000000E+000  0.000000000000000E+000        
  0.000000000000000E+000  0.000000000000000E+000  0.000000000000000E+000        
  0.000000000000000E+000   1.00000000000000       0.000000000000000E+000        
  0.151000000000000       0.000000000000000E+000  0.000000000000000E+000        
  0.000000000000000E+000  0.000000000000000E+000  0.000000000000000E+000        
  0.000000000000000E+000  0.000000000000000E+000   1.00000000000000             
    6    6                                                                      
   3.85600000000000        1.00000000000000       0.000000000000000E+000        
  0.000000000000000E+000  0.000000000000000E+000  0.000000000000000E+000        
  0.000000000000000E+000                                                        
   1.70200000000000       0.000000000000000E+000   1.00000000000000             
  0.000000000000000E+000  0.000000000000000E+000  0.000000000000000E+000        
  0.000000000000000E+000                                                        
  0.751000000000000       0.000000000000000E+000  0.000000000000000E+000        
   1.00000000000000       0.000000000000000E+000  0.000000000000000E+000        
  0.000000000000000E+000                                                        
   67.1880000000000       0.000000000000000E+000  0.000000000000000E+000        
  0.000000000000000E+000   1.00000000000000       0.000000000000000E+000        
  0.000000000000000E+000                                                        
   20.3600000000000       0.000000000000000E+000  0.000000000000000E+000        
  0.000000000000000E+000  0.000000000000000E+000   1.00000000000000             
  0.000000000000000E+000                                                        
  0.326000000000000       0.000000000000000E+000  0.000000000000000E+000        
  0.000000000000000E+000  0.000000000000000E+000  0.000000000000000E+000        
   1.00000000000000                                                             
    4    4                                                                      
   2.87500000000000        1.00000000000000       0.000000000000000E+000        
  0.000000000000000E+000  0.000000000000000E+000                                
   1.17000000000000       0.000000000000000E+000   1.00000000000000             
  0.000000000000000E+000  0.000000000000000E+000                                
   52.0500000000000       0.000000000000000E+000  0.000000000000000E+000        
   1.00000000000000       0.000000000000000E+000                                
  0.587000000000000       0.000000000000000E+000  0.000000000000000E+000        
  0.000000000000000E+000   1.00000000000000                                     
    2    2                                                                      
   2.09900000000000        1.00000000000000       0.000000000000000E+000        
   1.04100000000000       0.000000000000000E+000   1.00000000000000             
FINISH                                                                          
 
********************************************************************************
 ONE- AND TWO-ELECTRON INTEGRALS OVER SYMMETRY-ADAPTED AOS ARE CALCULATED.

  SPHERICAL HARMONICS ARE USED.
  
  INTEGRALS LESS THAN  0.10E-13 ARE NEGLECTED.

   BASIS FUNCTION NOT NORMALIZED: 
   CENTER (AS ORDERED IN MOL FILE):   1
   ANGULAR MOMENTUM TYPE          : S
   OFFSET WITHIN ANGULAR MOMENTUM :  1
   <CHI|CHI>                      :    1.1714440624
   BASIS FUNCTION NOT NORMALIZED: 
   CENTER (AS ORDERED IN MOL FILE):   1
   ANGULAR MOMENTUM TYPE          : S
   OFFSET WITHIN ANGULAR MOMENTUM :  2
   <CHI|CHI>                      :    3.7623155081
   BASIS FUNCTION NOT NORMALIZED: 
   CENTER (AS ORDERED IN MOL FILE):   1
   ANGULAR MOMENTUM TYPE          : P
   OFFSET WITHIN ANGULAR MOMENTUM :  1
   <CHI|CHI>                      :    9.9907394657
  NUCLEAR REPULSION ENERGY :    0.0000000000 A.U.
  @MOLECU-I, ONE ELECTRON INTEGRALS (CPU/WALL):        0.20/       0.20 SECONDS.
  @TWOEL-I,    1840768 INTEGRALS OF SYMMETRY TYPE  I I I I
  @TWOEL-I,   17046861 INTEGRALS OF SYMMETRY TYPE  I J I J
  @TWOEL-I,    9616124 INTEGRALS OF SYMMETRY TYPE  I I J J
  @TWOEL-I,   42389562 INTEGRALS OF SYMMETRY TYPE  I J K L
  @TWOEL-I, TOTAL NUMBER OF 2-E INTEGRALS   70893315.
  @MOLECU-I, TWO ELECTRON INTEGRALS (CPU/WALL):      250.25/     250.76 SECONDS.
 @CHECKOUT-I, Total execution time (CPU/WALL):      250.49/     251.54 seconds.

OMP_NUM_THREADS not specified; defaulting to 1
Running with 1 threads/proc

--executable xvmol finished with status     0 in      251.62 seconds (walltime).
 --invoking executable--
/cvmfs/restricted.computecanada.ca/easybuild/software/2020/avx2/Compiler/intel2020/cfour/2.1/bin/xvmol2ja
 @GETMEM-I,  Allocated   28610 MB of main memory.
 @CHECKOUT-I, Total execution time (CPU/WALL):        0.36/       0.14 seconds.
--executable xvmol2ja finished with status     0 in        0.21 seconds (walltime).
 --invoking executable--
/cvmfs/restricted.computecanada.ca/easybuild/software/2020/avx2/Compiler/intel2020/cfour/2.1/bin/xvscf
  There are  279 functions in the AO basis.

  There are 8 irreducible representations.

       Irrep        # of functions
         1                 59
         2                 40
         3                 40
         4                 28
         5                 40
         6                 28
         7                 28
         8                 16


  Parameters for SCF calculation: 
        SCF reference function: ROHF  
  Maximum number of iterations: 9999
     Full symmetry point group: I h 
     Computational point group: D2h 
        Initial density matrix: MOREAD                 
     SCF convergence tolerance: 10**(-10)
  DIIS convergence acceleration:  ON
          Latest start for DIIS:   5
                     DIIS order:   6

     Alpha population by irrep:   2    1    1    0    1    0    0    0
      Beta population by irrep:   2    0    0    0    0    0    0    0


  Memory information:    5506270 words required.
  Fock matrices are constructed from AO integral file.
 @GETMEM-I,  Allocated      42 MB of main memory.
  Initialization and symmetry analysis required      0.004 seconds.

 total no. of electrons in initial guess :  0.000000000000000E+000
 total no. of electrons in initial guess :  0.000000000000000E+000
  --------------------------------------------------------------------
  Iteration         Total Energy            Largest Density Difference
  --------------------------------------------------------------------
       0             0.000000000000000              0.0000000000D+00
   current occupation vector 
     2  1  1  0  1  0  0  0
     2  0  0  0  0  0  0  0
       1           -49.150459232294097              0.9411126112D+00
   current occupation vector 
     2  1  1  0  1  0  0  0
     2  0  0  0  0  0  0  0
       2           -51.181584718119261              0.1699284545D+01
   current occupation vector 
     2  1  1  0  1  0  0  0
     2  0  0  0  0  0  0  0
       3           -53.904236812362036              0.1699265453D+01
   current occupation vector 
     2  1  1  0  1  0  0  0
     2  0  0  0  0  0  0  0
       4           -51.992833913244027              0.1479922568D+01
   current occupation vector 
     2  1  1  0  1  0  0  0
     2  0  0  0  0  0  0  0
       5           -54.037332179824816              0.1479671122D+01
   current occupation vector 
     2  1  1  0  1  0  0  0
     2  0  0  0  0  0  0  0
       6           -54.349460839293272              0.9926968639D-01
   current occupation vector 
     2  1  1  0  1  0  0  0
     2  0  0  0  0  0  0  0
       7           -54.396913471905123              0.6979689297D-01
   current occupation vector 
     2  1  1  0  1  0  0  0
     2  0  0  0  0  0  0  0
       8           -54.395371144139858              0.5352178535D-01
   current occupation vector 
     2  1  1  0  1  0  0  0
     2  0  0  0  0  0  0  0
       9           -54.400861793487294              0.3358800279D-01
   current occupation vector 
     2  1  1  0  1  0  0  0
     2  0  0  0  0  0  0  0
      10           -54.400920133146570              0.2681716360D-02
   current occupation vector 
     2  1  1  0  1  0  0  0
     2  0  0  0  0  0  0  0
      11           -54.400923659826375              0.5306486171D-03
   current occupation vector 
     2  1  1  0  1  0  0  0
     2  0  0  0  0  0  0  0
      12           -54.400923661019206              0.2132131154D-04
   current occupation vector 
     2  1  1  0  1  0  0  0
     2  0  0  0  0  0  0  0
      13           -54.400923661030738              0.2289365350D-05
   current occupation vector 
     2  1  1  0  1  0  0  0
     2  0  0  0  0  0  0  0
      14           -54.400923661030745              0.2305100659D-06
   current occupation vector 
     2  1  1  0  1  0  0  0
     2  0  0  0  0  0  0  0
      15           -54.400923661030951              0.2916953248D-07
   current occupation vector 
     2  1  1  0  1  0  0  0
     2  0  0  0  0  0  0  0
      16           -54.400923661030795              0.1499561029D-08
   current occupation vector 
     2  1  1  0  1  0  0  0
     2  0  0  0  0  0  0  0
      17           -54.400923661030930              0.2733499746D-09
   current occupation vector 
     2  1  1  0  1  0  0  0
     2  0  0  0  0  0  0  0
      18           -54.400923661030802              0.3184034147D-09
   current occupation vector 
     2  1  1  0  1  0  0  0
     2  0  0  0  0  0  0  0

  SCF has converged.

 Density matrix saved to file den.dat
 total alpha spin electron number:   5.00000000000001     
 total  beta spin electron number:   2.00000000000000     
     E(ROHF)=       -54.400923661030959              0.7322872517D-10

  Eigenvector printing suppressed.


       The average multiplicity is    4.0000000
  The expectation value of S**2 is    3.7500000

 @PUTMOS-I, Writing converged MOs to NEWMOS. 
 @PUTMOS-I, Symmetry   1 Full Blocks 14 Partial Blocksize   3
 @PUTMOS-I, Symmetry   2 Full Blocks 10 Partial Blocksize   0
 @PUTMOS-I, Symmetry   3 Full Blocks 10 Partial Blocksize   0
 @PUTMOS-I, Symmetry   4 Full Blocks  7 Partial Blocksize   0
 @PUTMOS-I, Symmetry   5 Full Blocks 10 Partial Blocksize   0
 @PUTMOS-I, Symmetry   6 Full Blocks  7 Partial Blocksize   0
 @PUTMOS-I, Symmetry   7 Full Blocks  7 Partial Blocksize   0
 @PUTMOS-I, Symmetry   8 Full Blocks  4 Partial Blocksize   0
 @PUTFOCK-I, Writing converged Fock matrix to NEWFOCK. 
 @PUTFOCK-I, Symmetry   1 Full Blocks 14 Partial Blocksize   3
 @PUTFOCK-I, Symmetry   2 Full Blocks 10 Partial Blocksize   0
 @PUTFOCK-I, Symmetry   3 Full Blocks 10 Partial Blocksize   0
 @PUTFOCK-I, Symmetry   4 Full Blocks  7 Partial Blocksize   0
 @PUTFOCK-I, Symmetry   5 Full Blocks 10 Partial Blocksize   0
 @PUTFOCK-I, Symmetry   6 Full Blocks  7 Partial Blocksize   0
 @PUTFOCK-I, Symmetry   7 Full Blocks  7 Partial Blocksize   0
 @PUTFOCK-I, Symmetry   8 Full Blocks  4 Partial Blocksize   0
  @DMPJOB-I, Rotating orbitals to semicanonical basis.
             *** Eigenvalues correspond to new basis. ***

  @PRJDEN-I, Basis set contains h and/or higher angular momentum functions.
             Analysis of density matrix symmetry not available.
             Check irreps of the molecular orbitals in the full point group
             for presence of an asymmetric solution.

 
  ORBITAL EIGENVALUES (ALPHA)  (1H = 27.2113834 eV)

       MO #        E(hartree)               E(eV)           FULLSYM    COMPSYM
       ----   --------------------   --------------------   -------   ---------
    1     1         -15.6725593876        -426.4720223553      Ag        Ag (1)
    2     2          -1.1510336940         -31.3212191541      Ag        Ag (1)
    3    60          -0.5675890206         -15.4448824520     T1u       B2u (2)
    4   100          -0.5675890206         -15.4448824520     T1u       B3u (3)
    5   168          -0.5675890206         -15.4448824520     T1u       B1u (5)
  +++++++++++++++++++++++++++++++++++++++++++++++++++++++++++++++++++++++++++++
    6   101           0.0724430646           1.9712760053     T1u       B3u (3)
    7   169           0.0724430646           1.9712760053     T1u       B1u (5)
    8    61           0.0724430646           1.9712760053     T1u       B2u (2)
    9     3           0.0808860352           2.2010209152      Ag        Ag (1)
   10     4           0.2639378837           7.1821149479      Hg        Ag (1)
   11   236           0.2639378837           7.1821149479      Hg       B2g (7)
   12     5           0.2639378837           7.1821149479      Hg        Ag (1)
   13   208           0.2639378837           7.1821149479      Hg       B3g (6)
   14   140           0.2639378837           7.1821149479      Hg       B1g (4)
   15   102           0.3065095439           8.3405487150     T1u       B3u (3)
   16    62           0.3065095439           8.3405487150     T1u       B2u (2)
   17   170           0.3065095439           8.3405487150     T1u       B1u (5)
   18     6           0.4423436348          12.0367822399      Ag        Ag (1)
   19   103           0.6152417768          16.7415798728       u       B3u (3)
   20    63           0.6152417768          16.7415798728       u       B2u (2)
   21   171           0.6152417768          16.7415798728       u       B1u (5)
   22    64           0.6152417768          16.7415798728       u       B2u (2)
   23   264           0.6152417768          16.7415798728       u        Au (8)
   24   104           0.6152417768          16.7415798728       u       B3u (3)
   25   172           0.6152417768          16.7415798728       u       B1u (5)
   26     7           0.8015240864          21.8105792203      Hg        Ag (1)
   27   141           0.8015240864          21.8105792203      Hg       B1g (4)
   28   237           0.8015240864          21.8105792203      Hg       B2g (7)
   29   209           0.8015240864          21.8105792203      Hg       B3g (6)
   30     8           0.8015240864          21.8105792203      Hg        Ag (1)
   31    65           0.9334883880          25.4015104247     T1u       B2u (2)
   32   105           0.9334883880          25.4015104247     T1u       B3u (3)
   33   173           0.9334883880          25.4015104247     T1u       B1u (5)
   34     9           1.5468308050          42.0914060885      Ag        Ag (1)
   35    10           1.6288154034          44.3223204311       g        Ag (1)
   36   238           1.6288154034          44.3223204311       g       B2g (7)
   37   210           1.6288154034          44.3223204311       g       B3g (6)
   38    11           1.6288154034          44.3223204311       g        Ag (1)
   39   142           1.6288154034          44.3223204311       g       B1g (4)
   40    12           1.6288154034          44.3223204311       g        Ag (1)
   41   211           1.6288154034          44.3223204311       g       B3g (6)
   42   143           1.6288154034          44.3223204311       g       B1g (4)
   43   239           1.6288154034          44.3223204311       g       B2g (7)
   44   265           1.7956849462          48.8630715365       u        Au (8)
   45   174           1.7956849462          48.8630715365       u       B1u (5)
   46    66           1.7956849462          48.8630715365       u       B2u (2)
   47   106           1.7956849462          48.8630715365       u       B3u (3)
   48   175           1.7956849462          48.8630715365       u       B1u (5)
   49   107           1.7956849462          48.8630715365       u       B3u (3)
   50    67           1.7956849462          48.8630715365       u       B2u (2)
   51   212           1.9851763947          54.0193959934      Hg       B3g (6)
   52    13           1.9851763947          54.0193959934      Hg        Ag (1)
   53    14           1.9851763947          54.0193959934      Hg        Ag (1)
   54   240           1.9851763947          54.0193959934      Hg       B2g (7)
   55   144           1.9851763947          54.0193959934      Hg       B1g (4)
   56   108           2.4451629959          66.5362677562     T1u       B3u (3)
   57    68           2.4451629959          66.5362677562     T1u       B2u (2)
   58   176           2.4451629959          66.5362677562     T1u       B1u (5)
   59    69           3.4446131269          93.7326884601               B2u (2)
   60   266           3.4446131269          93.7326884601                Au (8)
   61   177           3.4446131269          93.7326884601               B1u (5)
   62   109           3.4446131269          93.7326884601               B3u (3)
   63    70           3.4446131269          93.7326884601               B2u (2)
   64   110           3.4446131269          93.7326884601               B3u (3)
   65   178           3.4446131269          93.7326884601               B1u (5)
   66    71           3.4446131269          93.7326884601               B2u (2)
   67   111           3.4446131269          93.7326884601               B3u (3)
   68   179           3.4446131269          93.7326884601               B1u (5)
   69   267           3.4446131269          93.7326884601                Au (8)
   70   112           4.2079948510         114.5053612368       u       B3u (3)
   71    72           4.2079948510         114.5053612368       u       B2u (2)
   72   180           4.2079948510         114.5053612368       u       B1u (5)
   73   268           4.2079948510         114.5053612368       u        Au (8)
   74   113           4.2079948510         114.5053612368       u       B3u (3)
   75    73           4.2079948510         114.5053612368       u       B2u (2)
   76   181           4.2079948510         114.5053612368       u       B1u (5)
   77    15           4.3388037277         118.0648517308       g        Ag (1)
   78   241           4.3388037277         118.0648517308       g       B2g (7)
   79    16           4.3388037277         118.0648517309       g        Ag (1)
   80   213           4.3388037277         118.0648517309       g       B3g (6)
   81   145           4.3388037277         118.0648517309       g       B1g (4)
   82    17           4.3388037277         118.0648517309       g        Ag (1)
   83   242           4.3388037277         118.0648517309       g       B2g (7)
   84   214           4.3388037277         118.0648517309       g       B3g (6)
   85   146           4.3388037277         118.0648517309       g       B1g (4)
   86    18           4.6052176706         125.3143436740      Ag        Ag (1)
   87    19           4.7238830625         128.5433931503      Hg        Ag (1)
   88    20           4.7238830625         128.5433931503      Hg        Ag (1)
   89   215           4.7238830625         128.5433931503      Hg       B3g (6)
   90   243           4.7238830625         128.5433931503      Hg       B2g (7)
   91   147           4.7238830625         128.5433931503      Hg       B1g (4)
   92    74           5.9937553447         163.0983746892     T1u       B2u (2)
   93   182           5.9937553447         163.0983746893     T1u       B1u (5)
   94   114           5.9937553447         163.0983746893     T1u       B3u (3)
   95    21           7.2023350676         195.9855008989    XXXX      XXXX (1)
   96   148           7.2023350676         195.9855008989    XXXX      XXXX (4)
   97    22           7.2023350676         195.9855008989    XXXX      XXXX (1)
   98   216           7.2023350676         195.9855008989    XXXX      XXXX (6)
   99    23           7.2023350676         195.9855008989    XXXX      XXXX (1)
  100   149           7.2023350676         195.9855008989    XXXX      XXXX (4)
  101   244           7.2023350676         195.9855008989    XXXX      XXXX (7)
  102   217           7.2023350676         195.9855008989    XXXX      XXXX (6)
  103    24           7.2023350676         195.9855008989    XXXX      XXXX (1)
  104   245           7.2023350676         195.9855008989    XXXX      XXXX (7)
  105   150           7.2023350676         195.9855008989    XXXX      XXXX (4)
  106   246           7.2023350676         195.9855008989    XXXX      XXXX (7)
  107   218           7.2023350676         195.9855008989    XXXX      XXXX (6)
  108   183           8.3581974546         227.4381154710               B1u (5)
  109    75           8.3581974546         227.4381154710               B2u (2)
  110   184           8.3581974546         227.4381154710               B1u (5)
  111   115           8.3581974546         227.4381154710               B3u (3)
  112    76           8.3581974546         227.4381154710               B2u (2)
  113   116           8.3581974546         227.4381154710               B3u (3)
  114   269           8.3581974546         227.4381154710                Au (8)
  115   185           8.3581974546         227.4381154710               B1u (5)
  116    77           8.3581974546         227.4381154710               B2u (2)
  117   270           8.3581974546         227.4381154710                Au (8)
  118   117           8.3581974546         227.4381154710               B3u (3)
  119   186           9.2845150623         252.6444990426       u       B1u (5)
  120   118           9.2845150623         252.6444990426       u       B3u (3)
  121    78           9.2845150623         252.6444990426       u       B2u (2)
  122   119           9.2845150623         252.6444990426       u       B3u (3)
  123   187           9.2845150623         252.6444990426       u       B1u (5)
  124    79           9.2845150623         252.6444990426       u       B2u (2)
  125   271           9.2845150623         252.6444990426       u        Au (8)
  126    25          10.1733638350         276.8313037827       g        Ag (1)
  127   151          10.1733638350         276.8313037827       g       B1g (4)
  128   219          10.1733638350         276.8313037827       g       B3g (6)
  129    26          10.1733638350         276.8313037827       g        Ag (1)
  130   152          10.1733638350         276.8313037827       g       B1g (4)
  131   220          10.1733638350         276.8313037827       g       B3g (6)
  132    27          10.1733638350         276.8313037827       g        Ag (1)
  133   247          10.1733638350         276.8313037827       g       B2g (7)
  134   248          10.1733638350         276.8313037827       g       B2g (7)
  135    28          11.1809988750         304.2504471824      Hg        Ag (1)
  136   249          11.1809988750         304.2504471824      Hg       B2g (7)
  137   221          11.1809988750         304.2504471824      Hg       B3g (6)
  138   153          11.1809988750         304.2504471824      Hg       B1g (4)
  139    29          11.1809988750         304.2504471824      Hg        Ag (1)
  140    30          13.0284098437         354.5210553501      Ag        Ag (1)
  141    80          14.5488706522         395.8948973537     T1u       B2u (2)
  142   188          14.5488706522         395.8948973537     T1u       B1u (5)
  143   120          14.5488706522         395.8948973537     T1u       B3u (3)
  144   222          17.2976278724         470.6923839475    XXXX      XXXX (6)
  145   154          17.2976278724         470.6923839475    XXXX      XXXX (4)
  146   223          17.2976278724         470.6923839476    XXXX      XXXX (6)
  147   250          17.2976278724         470.6923839476    XXXX      XXXX (7)
  148    31          17.2976278724         470.6923839476    XXXX      XXXX (1)
  149    32          17.2976278724         470.6923839476    XXXX      XXXX (1)
  150   155          17.2976278724         470.6923839476    XXXX      XXXX (4)
  151   251          17.2976278724         470.6923839476    XXXX      XXXX (7)
  152    33          17.2976278724         470.6923839476    XXXX      XXXX (1)
  153   156          17.2976278724         470.6923839476    XXXX      XXXX (4)
  154   224          17.2976278724         470.6923839476    XXXX      XXXX (6)
  155    34          17.2976278724         470.6923839476    XXXX      XXXX (1)
  156   252          17.2976278724         470.6923839476    XXXX      XXXX (7)
  157    81          20.2081810507         549.8925623865               B2u (2)
  158   121          20.2081810507         549.8925623865               B3u (3)
  159   189          20.2081810507         549.8925623865               B1u (5)
  160   122          20.2081810507         549.8925623865               B3u (3)
  161   272          20.2081810507         549.8925623865                Au (8)
  162    82          20.2081810507         549.8925623865               B2u (2)
  163   190          20.2081810507         549.8925623865               B1u (5)
  164   191          20.2081810507         549.8925623865               B1u (5)
  165   123          20.2081810507         549.8925623865               B3u (3)
  166   273          20.2081810507         549.8925623865                Au (8)
  167    83          20.2081810507         549.8925623865               B2u (2)
  168   192          20.6536028337         562.0131052998       u       B2u (5)
  169    84          20.6536028337         562.0131052998       u       B1u (2)
  170   124          20.6536028337         562.0131052998       u       B3u (3)
  171   125          20.6536028337         562.0131052998       u       B3u (3)
  172    85          20.6536028337         562.0131052998       u       B2u (2)
  173   193          20.6536028337         562.0131052998       u       B1u (5)
  174   274          20.6536028337         562.0131052998       u        Au (8)
  175   157          23.8625082641         649.3318612592       g       B1g (4)
  176    35          23.8625082641         649.3318612592       g        Ag (1)
  177    36          23.8625082641         649.3318612592       g        Ag (1)
  178    37          23.8625082641         649.3318612592       g        Ag (1)
  179   225          23.8625082641         649.3318612592       g       B3g (6)
  180   253          23.8625082641         649.3318612592       g       B2g (7)
  181   254          23.8625082641         649.3318612592       g       B2g (7)
  182   158          23.8625082641         649.3318612592       g       B1g (4)
  183   226          23.8625082641         649.3318612592       g       B3g (6)
  184    38          26.8075943342         729.4717274587      Hg        Ag (1)
  185   159          26.8075943342         729.4717274587      Hg       B1g (4)
  186    39          26.8075943342         729.4717274587      Hg        Ag (1)
  187   255          26.8075943342         729.4717274587      Hg       B2g (7)
  188   227          26.8075943342         729.4717274587      Hg       B3g (6)
  189    40          34.7885351512         946.6441679227      Ag        Ag (1)
  190   194          35.8756982050         976.2273785988     T1u       B1u (5)
  191    86          35.8756982050         976.2273785988     T1u       B2u (2)
  192   126          35.8756982050         976.2273785988     T1u       B3u (3)
  193   275          59.0669343512        1607.2929968945       u        Au (8)
  194   195          59.0669343512        1607.2929968945       u       B1u (5)
  195   127          59.0669343512        1607.2929968945       u       B3u (3)
  196    87          59.0669343512        1607.2929968945       u       B2u (2)
  197   196          59.0669343512        1607.2929968945       u       B1u (5)
  198   128          59.0669343512        1607.2929968945       u       B3u (3)
  199    88          59.0669343512        1607.2929968945       u       B2u (2)
  200    41          65.9992111247        1795.9298380124      Hg        Ag (1)
  201   160          65.9992111247        1795.9298380124      Hg       B1g (4)
  202    42          65.9992111247        1795.9298380124      Hg        Ag (1)
  203   228          65.9992111247        1795.9298380124      Hg       B3g (6)
  204   256          65.9992111247        1795.9298380125      Hg       B2g (7)
  205    43          85.7518582893        2333.4266931729      Ag        Ag (1)
  206    89          87.4678172357        2380.1203099610     T1u       B2u (2)
  207   129          87.4678172357        2380.1203099610     T1u       B3u (3)
  208   197          87.4678172357        2380.1203099610     T1u       B1u (5)
  209   161         103.0820977383        2805.0064832335       g       B1g (4)
  210    44         103.0820977383        2805.0064832335       g        Ag (1)
  211   162         103.0820977383        2805.0064832335       g       B1g (4)
  212   229         103.0820977383        2805.0064832335       g       B3g (6)
  213   257         103.0820977383        2805.0064832335       g       B2g (7)
  214    45         103.0820977383        2805.0064832335       g        Ag (1)
  215   258         103.0820977383        2805.0064832335       g       B2g (7)
  216   230         103.0820977383        2805.0064832335       g       B3g (6)
  217    46         103.0820977383        2805.0064832335       g        Ag (1)
  218   231         161.7520242804        4401.4963484195      Hg       B3g (6)
  219   259         161.7520242804        4401.4963484195      Hg       B2g (7)
  220    47         161.7520242804        4401.4963484195      Hg        Ag (1)
  221   163         161.7520242804        4401.4963484195      Hg       B1g (4)
  222    48         161.7520242804        4401.4963484195      Hg        Ag (1)
  223   130         176.6599248180        4807.1609456387       u       B3u (3)
  224   198         176.6599248180        4807.1609456388       u       B1u (5)
  225   199         176.6599248180        4807.1609456388       u       B1u (5)
  226   276         176.6599248180        4807.1609456388       u        Au (8)
  227   131         176.6599248180        4807.1609456388       u       B3u (3)
  228    90         176.6599248180        4807.1609456388       u       B2u (2)
  229    91         176.6599248180        4807.1609456388       u       B2u (2)
  230    49         197.0616009745        5362.3187775360      Ag        Ag (1)
  231   132         207.4953550200        5646.2356591693     T1u       B3u (3)
  232   200         207.4953550200        5646.2356591694     T1u       B1u (5)
  233    92         207.4953550200        5646.2356591694     T1u       B2u (2)
  234   277         320.6312954611        8724.8211108313                Au (8)
  235    93         320.6312954611        8724.8211108313               B2u (2)
  236   201         320.6312954611        8724.8211108313               B1u (5)
  237    94         320.6312954611        8724.8211108314               B2u (2)
  238   133         320.6312954611        8724.8211108314               B3u (3)
  239   278         320.6312954611        8724.8211108314                Au (8)
  240   134         320.6312954611        8724.8211108314               B3u (3)
  241   202         320.6312954611        8724.8211108314               B2u (5)
  242    95         320.6312954611        8724.8211108314               B1u (2)
  243   135         320.6312954611        8724.8211108314               B3u (3)
  244   203         320.6312954611        8724.8211108315               B1u (5)
  245   232         374.4280734279       10188.7058617697       g       B3g (6)
  246   164         374.4280734279       10188.7058617697       g       B1g (4)
  247    50         374.4280734279       10188.7058617697       g        Ag (1)
  248    51         374.4280734279       10188.7058617697       g        Ag (1)
  249   260         374.4280734279       10188.7058617697       g       B2g (7)
  250   165         374.4280734279       10188.7058617697       g       B1g (4)
  251   233         374.4280734279       10188.7058617697       g       B3g (6)
  252   261         374.4280734279       10188.7058617698       g       B2g (7)
  253    52         374.4280734279       10188.7058617698       g        Ag (1)
  254    53         393.7242318885       10713.7810277871      Hg        Ag (1)
  255   166         393.7242318885       10713.7810277871      Hg       B1g (4)
  256   234         393.7242318885       10713.7810277872      Hg       B3g (6)
  257   262         393.7242318885       10713.7810277872      Hg       B2g (7)
  258    54         393.7242318885       10713.7810277872      Hg        Ag (1)
  259    55         438.1879444961       11923.7001589414      Ag        Ag (1)
  260   136         489.2948022953       13314.3884608855     T1u       B3u (3)
  261    96         489.2948022953       13314.3884608856     T1u       B2u (2)
  262   204         489.2948022953       13314.3884608856     T1u       B1u (5)
  263   137         531.7445822369       14469.5056981222       u       B3u (3)
  264   279         531.7445822369       14469.5056981222       u        Au (8)
  265   205         531.7445822369       14469.5056981222       u       B1u (5)
  266   206         531.7445822369       14469.5056981223       u       B1u (5)
  267   138         531.7445822369       14469.5056981223       u       B3u (3)
  268    97         531.7445822369       14469.5056981223       u       B2u (2)
  269    98         531.7445822369       14469.5056981223       u       B2u (2)
  270    56         982.5086725645       26735.4201829777      Ag        Ag (1)
  271    57         984.0931262687       26778.5353602028      Hg        Ag (1)
  272   235         984.0931262687       26778.5353602028      Hg       B3g (6)
  273   167         984.0931262687       26778.5353602028      Hg       B1g (4)
  274   263         984.0931262687       26778.5353602029      Hg       B2g (7)
  275    58         984.0931262687       26778.5353602030      Hg        Ag (1)
  276   139        1181.0871584689       32139.0154979151     T1u       B3u (3)
  277    99        1181.0871584689       32139.0154979151     T1u       B2u (2)
  278   207        1181.0871584689       32139.0154979151     T1u       B1u (5)
  279    59        3155.7921029940       85873.4688452625      Ag        Ag (1)


 
  ORBITAL EIGENVALUES ( BETA)  (1H = 27.2113834 eV)

       MO #        E(hartree)               E(eV)           FULLSYM    COMPSYM
       ----   --------------------   --------------------   -------   ---------
    1     1         -15.5858558221        -424.1126983933      Ag        Ag (1)
    2     2          -0.7393228561         -20.1179976924      Ag        Ag (1)
  +++++++++++++++++++++++++++++++++++++++++++++++++++++++++++++++++++++++++++++
    3   100           0.0567058500           1.5430446240     T1u       B3u (3)
    4    60           0.0567058500           1.5430446241     T1u       B2u (2)
    5   168           0.0567058500           1.5430446241     T1u       B1u (5)
    6     3           0.0901375056           2.4527662232      Ag        Ag (1)
    7   169           0.1439584296           3.9173080226     T1u       B1u (5)
    8   101           0.1439584296           3.9173080226     T1u       B3u (3)
    9    61           0.1439584296           3.9173080226     T1u       B2u (2)
   10   208           0.2718191213           7.3965743253      Hg       B3g (6)
   11     4           0.2718191213           7.3965743253      Hg        Ag (1)
   12   140           0.2718191213           7.3965743253      Hg       B1g (4)
   13     5           0.2718191213           7.3965743253      Hg        Ag (1)
   14   236           0.2718191213           7.3965743253      Hg       B2g (7)
   15   102           0.3902505229          10.6192565998     T1u       B3u (3)
   16   170           0.3902505229          10.6192565998     T1u       B1u (5)
   17    62           0.3902505229          10.6192565998     T1u       B2u (2)
   18     6           0.4814540839          13.1010316674      Ag        Ag (1)
   19   264           0.6206892708          16.8898137191       u        Au (8)
   20    63           0.6206892708          16.8898137191       u       B2u (2)
   21   171           0.6206892708          16.8898137191       u       B1u (5)
   22   103           0.6206892708          16.8898137191       u       B3u (3)
   23    64           0.6206892708          16.8898137191       u       B2u (2)
   24   104           0.6206892708          16.8898137191       u       B3u (3)
   25   172           0.6206892708          16.8898137191       u       B1u (5)
   26   209           0.8623252729          23.4650636153      Hg       B3g (6)
   27   141           0.8623252729          23.4650636153      Hg       B1g (4)
   28   237           0.8623252729          23.4650636153      Hg       B2g (7)
   29     7           0.8623252729          23.4650636153      Hg        Ag (1)
   30     8           0.8623252729          23.4650636153      Hg        Ag (1)
   31   173           1.0390153013          28.2730437216     T1u       B1u (5)
   32    65           1.0390153013          28.2730437216     T1u       B2u (2)
   33   105           1.0390153013          28.2730437216     T1u       B3u (3)
   34     9           1.6213182020          44.1183112069      Ag        Ag (1)
   35    10           1.6390834909          44.6017292945       g        Ag (1)
   36   210           1.6390834909          44.6017292945       g       B3g (6)
   37    11           1.6390834909          44.6017292945       g        Ag (1)
   38   211           1.6390834909          44.6017292945       g       B3g (6)
   39   142           1.6390834909          44.6017292945       g       B1g (4)
   40    12           1.6390834909          44.6017292945       g        Ag (1)
   41   238           1.6390834909          44.6017292945       g       B2g (7)
   42   143           1.6390834909          44.6017292945       g       B1g (4)
   43   239           1.6390834909          44.6017292945       g       B2g (7)
   44   265           1.8300851296          49.7991481153       u        Au (8)
   45    66           1.8300851296          49.7991481153       u       B2u (2)
[...]
   1181.08808328606       0.271819121305523       0.862325272859216     
   1.63908349086357        1.63908349086358        2.10555481030873     
   4.37479933180344        4.37479933180348        4.84787252091444     
   7.22087331088955        7.22087331088958        7.22087331088962     
   10.2293727768196        10.2293727768197        11.2743241327861     
   17.3299083273253        17.3299083273254        17.3299083273254     
   23.9164781238191        23.9164781238194        26.8640071813521     
   66.0267364683934        103.105206228983        103.105206228984     
   161.763286350846        374.433362748206        374.433362748207     
   393.728257462040        984.094343852255       5.670584995141476E-002
  0.143958429641162       0.390250522865835       0.620689270765696     
  0.620689270765708        1.03901530127935        1.83008512956714     
   1.83008512956714        2.55393638447561        3.45830634665709     
   3.45830634665710        3.45830634665712        4.27586223852154     
   4.27586223852159        6.08653867568943        8.39084514633395     
   8.39084514633397        8.39084514633403        9.36193575233306     
   9.36193575233318        14.6152179962461        20.2533884143658     
   20.2533884143659        20.2533884143659        20.7174789814289     
   20.7174789814290        35.9140834348814        59.1014237676540     
   59.1014237676543        87.4861691065652        176.671513497843     
   176.671513497844        207.503032706894        320.638384824272     
   320.638384824273        320.638384824275        489.297661121005     
   531.747551038046        531.747551038047        1181.08808328606     
  0.271819121305509       0.862325272859213        1.63908349086356     
   1.63908349086357        2.10555481030869        4.37479933180345     
   4.37479933180346        4.84787252091459        7.22087331088959     
   7.22087331088960        7.22087331088963        10.2293727768196     
   10.2293727768197        11.2743241327861        17.3299083273253     
   17.3299083273253        17.3299083273254        23.9164781238193     
   23.9164781238195        26.8640071813521        66.0267364683932     
   103.105206228984        103.105206228984        161.763286350846     
   374.433362748203        374.433362748206        393.728257462041     
   984.094343852255       0.271819121305539       0.862325272859221     
   1.63908349086357        1.63908349086358        2.10555481030872     
   4.37479933180344        4.37479933180346        4.84787252091451     
   7.22087331088960        7.22087331088961        7.22087331088964     
   10.2293727768196        10.2293727768196        11.2743241327861     
   17.3299083273254        17.3299083273254        17.3299083273255     
   23.9164781238193        23.9164781238194        26.8640071813522     
   66.0267364683938        103.105206228984        103.105206228985     
   161.763286350845        374.433362748206        374.433362748206     
   393.728257462042        984.094343852256       0.620689270765473     
   1.83008512956707        3.45830634665712        3.45830634665714     
   4.27586223852145        8.39084514633402        8.39084514633404     
   9.36193575233310        20.2533884143659        20.2533884143659     
   20.7174789814290        59.1014237676540        176.671513497844     
   320.638384824271        320.638384824273        531.747551038045     
 @CHECKOUT-I, Total execution time (CPU/WALL):      138.03/     313.44 seconds.
--executable xvtran finished with status     0 in      313.56 seconds (walltime).
 --invoking executable--
/cvmfs/restricted.computecanada.ca/easybuild/software/2020/avx2/Compiler/intel2020/cfour/2.1/bin/xintprc
 @GETMEM-I,  Allocated   28610 MB of main memory.
  @GMOIAA-I, Processing MO integrals for spin case AA.
  @GMOIAA-I, Generation of integral list completed.
                      TYPE                NUMBER
                      ----               --------
                      PPPP              89153689
                      PPPH               6539130
                      PPHH                122565
                      PHPH                 74787
                      PHHH                  2982
                      HHHH                    33

                     TOTAL              95893186
  @GMOIAA-I, Processing MO integrals for spin case BB.
  @GMOIAA-I, Generation of integral list completed.
                      TYPE                NUMBER
                      ----               --------
                      PPPP              93126423
                      PPPH               2728422
                      PPHH                 21591
                      PHPH                 16401
                      PHHH                   342
                      HHHH                     6

                     TOTAL              95893185
  @GMOIAB-I, Processing MO integrals for spin case AB.
                      TYPE                NUMBER
                      ----               --------
                      PPPP             182198603
                      PPPH1H             6684093
                      PPPH2H             2668974
                      PPHH                101086
                      PHPH1P               16041
                      PHPH2P               76470
                      PHHH1P                 693
                      PHHH2P                1332
                      HHHH                    18

                     TOTAL             191747310

  @FORMT2-I, Second-order MP correlation energies:
  @FORMT2-I, Singles contribution will be calculated.
            ------------------------------------------------
            E(SCF)                  =    -54.400923661031 a.u.
            E2(AA)                  =     -0.036704963316 a.u.
            E2(BB)                  =     -0.000987759618 a.u.
            E2(AB)                  =     -0.129033091532 a.u.
            E2(SINGLE)              =     -0.002276549452 a.u.
            E2(TOT)                 =     -0.166725814467 a.u.
            Total MP2 energy        =    -54.569926024950 a.u.
            ------------------------------------------------
            ----------------------------------------------
                     Projected spin multiplicities: 
            ----------------------------------------------
             <0|S^2|0>                  =    3.7500000000.
             <0|S^2 T2|0>               =   -0.0000000000.
             Projected <0|S^2 exp(T)|0> =    3.7500000000.
             Approximate spin mult.     =    4.0000000000.
            ----------------------------------------------
   Largest T2 amplitudes for spin case AA:
   i   j   a   b             i   j   a   b             i   j   a   b
-----------------------------------------------------------------------------
[  4   3 106  67]-0.01379 [  5   3 173  67]-0.01379 [  5   4 173 106]-0.01379
[  4   3 142  10]-0.01237 [  5   4 237  11] 0.01203 [  4   3 106  64] 0.01156
[  5   3 173  64] 0.01156 [  4   3 103  67] 0.01156 [  5   4 173 103] 0.01156
[  5   3 170  67] 0.01156 [  5   4 170 106] 0.01156 [  4   3 145  17]-0.01129
[  4   3 103  64]-0.01119 [  5   3 170  64]-0.01119 [  5   4 170 103]-0.01119
-----------------------------------------------------------------------------
   Norm of T2AA vector (    47778 symmetry allowed elements):  0.0868996592.
-----------------------------------------------------------------------------
   Largest T2 amplitudes for spin case BB:
   i   j   a   b             i   j   a   b             i   j   a   b
-----------------------------------------------------------------------------
[  2   1 182 169] 0.00104 [  2   1 114 101] 0.00104 [  2   1  74  61] 0.00104
[  2   1 182 170] 0.00098 [  2   1  74  62] 0.00098 [  2   1 114 102] 0.00098
[  2   1  80  65] 0.00093 [  2   1 188 173] 0.00093 [  2   1 120 105] 0.00093
[  2   1 188 169]-0.00091 [  2   1 120 101]-0.00091 [  2   1  80  61]-0.00091
[  2   1  74  65]-0.00090 [  2   1 114 105]-0.00090 [  2   1 182 173]-0.00090
-----------------------------------------------------------------------------
   Norm of T2BB vector (     5190 symmetry allowed elements):  0.0055553162.
-----------------------------------------------------------------------------
   Largest T2 amplitudes for spin case AB:
       _       _                 _       _                 _       _
   i   j   a   b             i   j   a   b             i   j   a   b
-----------------------------------------------------------------------------
[  5   2  11 169] 0.01828 [  3   2  10  61] 0.01778 [  5   2  16 169]-0.01663
[  3   2  17  61]-0.01645 [  3   2 209 169] 0.01619 [  3   2 142 101] 0.01619
[  4   2 237 169] 0.01619 [  4   2 142  61] 0.01619 [  5   2 237 101] 0.01619
[  5   2 209  61] 0.01619 [  3   2 212 169]-0.01483 [  4   2 240 169]-0.01483
[  3   2 145 101]-0.01483 [  5   2 240 101]-0.01483 [  4   2 145  61]-0.01483
-----------------------------------------------------------------------------
   Norm of T2AB vector (   101086 symmetry allowed elements):  0.1402939560.
-----------------------------------------------------------------------------
 @CHECKOUT-I, Total execution time (CPU/WALL):       71.89/     149.44 seconds.
--executable xintprc finished with status     0 in      150.06 seconds (walltime).
  calling xvcc 
 --invoking executable--
/cvmfs/restricted.computecanada.ca/easybuild/software/2020/avx2/Compiler/intel2020/cfour/2.1/bin/xvcc
 @GETMEM-I,  Allocated   28610 MB of main memory.
   CCSD(T) energy will be calculated.
   The reference state is a ROHF wave function.
   The total correlation energy is -0.169049551420 a.u.
   The total correlation energy is -0.179517224536 a.u.
  Convergence information after     1 iterations: 
  Largest element of residual vector :  0.41480907E-02.
  Largest element of DIIS residual   :  0.41480907E-02.
   The total correlation energy is -0.182004928536 a.u.
  Convergence information after     2 iterations: 
  Largest element of residual vector :  0.14105288E-02.
  Largest element of DIIS residual   : -0.14820167E-02.
   The total correlation energy is -0.182734879054 a.u.
  Convergence information after     3 iterations: 
  Largest element of residual vector :  0.48106352E-03.
  Largest element of DIIS residual   :  0.63482162E-03.
   The total correlation energy is -0.182850806481 a.u.
  Convergence information after     4 iterations: 
  Largest element of residual vector :  0.27548475E-03.
  Largest element of DIIS residual   :  0.13811253E-03.
   The total correlation energy is -0.182864197983 a.u.
  Convergence information after     5 iterations: 
  Largest element of residual vector :  0.96524385E-04.
  Largest element of DIIS residual   :  0.44310491E-04.
   The total correlation energy is -0.182863295136 a.u.
  Convergence information after     6 iterations: 
  Largest element of residual vector :  0.20201163E-04.
  Largest element of DIIS residual   :  0.14212615E-04.
   The total correlation energy is -0.182863828341 a.u.
  Convergence information after     7 iterations: 
  Largest element of residual vector :  0.53818987E-05.
  Largest element of DIIS residual   : -0.32290473E-05.
   The total correlation energy is -0.182863966191 a.u.
  Convergence information after     8 iterations: 
  Largest element of residual vector :  0.16525487E-05.
  Largest element of DIIS residual   :  0.91695981E-06.
   The total correlation energy is -0.182863953393 a.u.
  Convergence information after     9 iterations: 
  Largest element of residual vector : -0.31752608E-06.
  Largest element of DIIS residual   : -0.12345314E-06.
   The total correlation energy is -0.182863926334 a.u.
  Convergence information after    10 iterations: 
  Largest element of residual vector : -0.63372755E-07.
  Largest element of DIIS residual   :  0.43521343E-07.
   The total correlation energy is -0.182863921537 a.u.
  Convergence information after    11 iterations: 
  Largest element of residual vector :  0.26005943E-07.
  Largest element of DIIS residual   :  0.24627384E-07.
   The total correlation energy is -0.182863919729 a.u.
  Convergence information after    12 iterations: 
  Largest element of residual vector :  0.10950524E-07.
  Largest element of DIIS residual   :  0.57993266E-08.
   The total correlation energy is -0.182863919269 a.u.
  Convergence information after    13 iterations: 
  Largest element of residual vector : -0.36026650E-08.
  Largest element of DIIS residual   : -0.21462249E-08.
   The total correlation energy is -0.182863919219 a.u.
  Convergence information after    14 iterations: 
  Largest element of residual vector : -0.11368223E-08.
  Largest element of DIIS residual   : -0.68185937E-09.
   The total correlation energy is -0.182863919189 a.u.
  Convergence information after    15 iterations: 
  Largest element of residual vector : -0.38788465E-09.
  Largest element of DIIS residual   : -0.17232384E-09.
   The total correlation energy is -0.182863919184 a.u.
  Convergence information after    16 iterations: 
  Largest element of residual vector : -0.82167590E-10.
  Largest element of DIIS residual   : -0.10898372E-09.
  Amplitude equations converged in    16iterations.
   The total correlation energy is -0.182863919183 a.u.
   The CC iterations have converged.

            ----------------------------------------------
                     Projected spin multiplicities: 
            ----------------------------------------------
             <0|S^2|0>                  =    3.7500000000.
             <0|S^2 (T2+T1**2) |0>      =   -0.0000000000.
             <0|S^2 T1|0>               =   -0.0000000000.
             Projected <0|S^2 exp(T)|0> =    3.7500000000.
             Approximate spin mult.     =    4.0000000000.
            ----------------------------------------------
   Largest T1 amplitudes for spin case AA:
   i       a                 i       a                 i       a    
-----------------------------------------------------------------------------
[  2       9    ] 0.02140 [  2      12    ]-0.01377 [  2       6    ]-0.01364
[  4     109    ] 0.00386 [  3      70    ] 0.00386 [  5     176    ] 0.00386
[  5     173    ]-0.00360 [  3      67    ]-0.00360 [  4     106    ]-0.00360
[  2      21    ] 0.00272 [  3      63    ] 0.00219 [  4     102    ] 0.00219
[  5     169    ] 0.00219 [  1      12    ] 0.00148 [  4     115    ]-0.00144
-----------------------------------------------------------------------------
   Norm of T1AA vector (      231 symmetry allowed elements):  0.0309038230.
-----------------------------------------------------------------------------
   Largest T2 amplitudes for spin case AA:
   i   j   a   b             i   j   a   b             i   j   a   b
-----------------------------------------------------------------------------
[  4   3 106  67]-0.01606 [  5   4 173 106]-0.01606 [  5   3 173  67]-0.01606
[  5   4 170 106] 0.01362 [  4   3 106  64] 0.01362 [  5   3 170  67] 0.01362
[  5   3 173  64] 0.01362 [  5   4 173 103] 0.01362 [  4   3 103  67] 0.01362
[  5   4 170 103]-0.01285 [  5   3 170  64]-0.01285 [  4   3 103  64]-0.01285
[  4   3 142  10]-0.01232 [  5   4 237  11] 0.01198 [  4   3 145  17]-0.01145
-----------------------------------------------------------------------------
   Norm of T2AA vector (    47778 symmetry allowed elements):  0.0951072222.
-----------------------------------------------------------------------------
   Largest T1 amplitudes for spin case BB:
   i       a                 i       a                 i       a    
-----------------------------------------------------------------------------
[  2       6    ]-0.02590 [  2       3    ] 0.02154 [  2       9    ] 0.00935
[  2      30    ]-0.00093 [  2      18    ] 0.00087 [  1       9    ]-0.00085
[  1      18    ] 0.00081 [  1       6    ] 0.00058 [  1      30    ]-0.00049
[  1       3    ]-0.00025 [  1      40    ] 0.00019 [  2      40    ] 0.00018
[  1      43    ]-0.00007 [  2      43    ]-0.00004 [  1      49    ] 0.00002
-----------------------------------------------------------------------------
   Norm of T1BB vector (      114 symmetry allowed elements):  0.0350165833.
-----------------------------------------------------------------------------
   Largest T2 amplitudes for spin case BB:
   i   j   a   b             i   j   a   b             i   j   a   b
-----------------------------------------------------------------------------
[  2   1 182 169] 0.00096 [  2   1 114 101] 0.00096 [  2   1  74  61] 0.00096
[  2   1  74  62] 0.00091 [  2   1 182 170] 0.00091 [  2   1 114 102] 0.00091
[  2   1  80  65] 0.00089 [  2   1 188 173] 0.00089 [  2   1 120 105] 0.00089
[  2   1 120 108]-0.00087 [  2   1 188 176]-0.00087 [  2   1  80  68]-0.00087
[  2   1 188 169]-0.00085 [  2   1 120 101]-0.00085 [  2   1  80  61]-0.00085
-----------------------------------------------------------------------------
   Norm of T2BB vector (     5190 symmetry allowed elements):  0.0052548479.
-----------------------------------------------------------------------------
   Largest T2 amplitudes for spin case AB:
       _       _                 _       _                 _       _
   i   j   a   b             i   j   a   b             i   j   a   b
-----------------------------------------------------------------------------
[  5   2  11 169] 0.02369 [  3   2  10  61] 0.02303 [  4   2 237 169] 0.02097
[  3   2 209 169] 0.02097 [  3   2 142 101] 0.02097 [  5   2 237 101] 0.02097
[  4   2 142  61] 0.02097 [  5   2 209  61] 0.02097 [  5   2  16 169]-0.02017
[  3   2  17  61]-0.01995 [  4   2  10 101]-0.01799 [  3   2 212 169]-0.01799
[  4   2 240 169]-0.01799 [  5   2 240 101]-0.01799 [  3   2 145 101]-0.01799
-----------------------------------------------------------------------------
   Norm of T2AB vector (   101086 symmetry allowed elements):  0.1696440494.
-----------------------------------------------------------------------------
       Summary of iterative solution of CC equations 
      -----------------------------------------------------------
                       Correlation           Total
       Iteration         Energy              Energy
      -----------------------------------------------------------
            0        -0.169049551420     -54.569973212451  DIIS 
            1        -0.179517224536     -54.580440885566  DIIS 
            2        -0.182004928536     -54.582928589567  DIIS 
            3        -0.182734879054     -54.583658540085  DIIS 
            4        -0.182850806481     -54.583774467512  DIIS 
            5        -0.182864197983     -54.583787859014  DIIS 
            6        -0.182863295136     -54.583786956167  DIIS 
            7        -0.182863828341     -54.583787489372  DIIS 
            8        -0.182863966191     -54.583787627222  DIIS 
            9        -0.182863953393     -54.583787614424  DIIS 
           10        -0.182863926334     -54.583787587365  DIIS 
           11        -0.182863921537     -54.583787582568  DIIS 
           12        -0.182863919729     -54.583787580760  DIIS 
           13        -0.182863919269     -54.583787580300  DIIS 
           14        -0.182863919219     -54.583787580250  DIIS 
           15        -0.182863919189     -54.583787580220  DIIS 
           16        -0.182863919183     -54.583787580214  DIIS 
      -----------------------------------------------------------
      A miracle has come to pass. The CC iterations have converged.
 @TRPS2-I, E4ST A   -0.000020250996187
 @TRPS2-I, E4ST B    0.000013962597856
        E(CCSD)           =     -54.583787580214
        E(CCSD(T))        =     -54.587210673006
 @CHECKOUT-I, Total execution time (CPU/WALL):      245.35/      66.67 seconds.
--executable xvcc finished with status     0 in       66.86 seconds (walltime).
  The final electronic energy is       -54.587210673006311 a.u. 
  This computation required                          796.99 seconds (walltime).
