 --invoking executable--
/cvmfs/restricted.computecanada.ca/easybuild/software/2020/avx2/Compiler/intel2020/cfour/2.1/bin/xjoda


   *************************************************************************
         <<<     CCCCCC     CCCCCC   |||     CCCCCC     CCCCCC   >>>
       <<<      CCC        CCC       |||    CCC        CCC         >>>
      <<<      CCC        CCC        |||   CCC        CCC            >>>
    <<<        CCC        CCC        |||   CCC        CCC              >>>
      <<<      CCC        CCC        |||   CCC        CCC            >>>
       <<<      CCC        CCC       |||    CCC        CCC         >>>
         <<<     CCCCCC     CCCCCC   |||     CCCCCC     CCCCCC   >>>
   *************************************************************************

     ****************************************************************
     * CFOUR Coupled-Cluster techniques for Computational Chemistry *
     ****************************************************************
 

   Department of Chemistry                Institut fuer Physikalische Chemie
   University of Florida                  Universitaet Mainz
   Gainesville, FL 32611, USA             D-55099 Mainz, Germany

   Department of Chemistry                Fakultaet fuer Chemie und Biowiss.
   Johns Hopkins University               Karlsruher Institut fuer Technologie
   Baltimore, MD 21218, USA               D-76131 Karlsruhe, Germany

   Department of Chemistry                Department of Physical Chemistry
   Southern Methodist University          Eotvos Lorand University
   Dallas, TX 75275, USA                  H-1053 Budapest, Hungary

 
                       Version 2.1
 
                     gra385                                            
                     Sun 24 Mar 2024 03:46:17 PM EDT                   
                     integer*8 version is running
 
********************************************************************************
*                          Input from ZMAT file                                *
********************************************************************************
Test                                                                            
N                                                                               
                                                                                
*ACES2(CALC=CCSDT                                                               
#FROZEN_CORE=ON                                                                 
#DROPMO=1                                                                       
#INPUT_MRCC=OFF                                                                 
#CC_PROG=MRCC                                                                   
XFORM_TOL=18                                                                    
SAVE_INTS=ON                                                                    
SCF_EXPORDER=6                                                                  
SCF_EXPSTART=5                                                                  
#SCF_DAMPING=1000                                                               
SCF_EXTRAPOLATION=ON                                                            
SCF_CONV=10                                                                     
SCF_MAXCYC=9999                                                                 
CC_CONV=10                                                                      
CC_MAXCYC=999                                                                   
T3_EXTRAPOL=ON                                                                  
REFERENCE=ROHF                                                                  
CHARGE=+0                                                                       
MULT=4                                                                          
ABCDTYPE=STANDARD                                                               
OCCUPATION=2-1-1-0-1-0-0-0/2-0-0-0-0-0-0-0                                      
MEM=30                                                                          
MEM_UNIT=GB                                                                     
BASIS=SPECIAL)                                                                  
                                                                                
N:aCV6Z-EMOLP                                                                   
                                                                                
********************************************************************************
  @GTFLGS-W, Keyword #FROZEN_CORE not known and is ignored.
  @GTFLGS-W, Keyword #DROPMO not known and is ignored.
  @GTFLGS-W, Keyword #INPUT_MRCC not known and is ignored.
  @GTFLGS-W, Keyword #CC_PROG not known and is ignored.
  @GTFLGS-W, Keyword #SCF_DAMPING not known and is ignored.
    -------------------------------------------------------------------
                    CFOUR Control Parameters 
    -------------------------------------------------------------------
        External           Internal           Value            Units
          Name               Name
    -------------------------------------------------------------------
       ABCDTYPE             IABCDT         STANDARD    [  0]    ***   
       ANHARMONIC           IANHAR         OFF         [  0]    ***   
       ANH_ALGORIT          IANALG         STANDARD    [  0]    ***   
       ANH_DERIVAT          IANDER         SECOND      [  1]    ***   
       ANH_MODE             ANHMOD         VIBRATION   [  0]    ***   
       ANH_STEPSIZ          ICUBST             50000          x 10-6  
       ANH_SYMMETR          IANHSM         ABELIAN     [  0]    ***   
       AO_LADDERS           IAOLAD         SINGLEPASS  [  1]    ***   
       AV_SCF               IAVSCF         OFF         [  0]    ***   
       BASIS                IBASIS         SPECIAL     [  0]    ***   
       BOTHVECTORS          BOTHVC         OFF         [  0]    ***   
       BOX_POTENT           IPIAB          OFF         [  0]    ***   
       BREIT                IBREIT         OFF         [  0]    ***   
       BRUCK_CONV           IBRTOL          10D-  4             ***   
       BRUECKNER            IBRKNR         OFF         [  0]    ***   
       BUFFERSIZE           IBUFFS              4096            ***   
       CACHE_RECS           ICHREC             10               ***   
       CALCLEVEL            ICLLVL         CCSDT       [ 18]    ***   
       CCORBOPT             ICCORB         OFF         [  0]  x 0.01  
       CC_CONV              ICCCNV          10D- 10             ***   
       CC_EXPORDER          ICCEOR              5               ***   
       CC_EXTRAPOL          ICCEXT         DIIS        [  1]    ***   
       CC_GUESS             ICCGES         MP2         [  0]    ***   
       CC_MAXCYC            ICCCYC            999              cycles 
       CC_PROGRAM           ICCPRO         VCC         [  0]    ***   
       CHARGE               ICHRGE              0               ***   
       CHOLESKY             ICHOLE         OFF         [  0]    ***   
       CIS_CONV             ICISTL              5               ***   
       COMM_SIZE            IPSIZE            ***               ***   
       CONSTANT             ICONST         OLD         [  1]    ***   
       CONTINUUM            ICONTU         NONE        [  0]    ***   
       CONTRACTION          ICNTYP         GENERAL     [  1]    ***   
       COORDINATES          ICOORD         INTERNAL    [  0]    ***   
       CPHF_CONVER          ICPHFT          10D- 16             ***   
       CPHF_MAXCYC          ICPHFC             64              cycles 
       CUBIC                ICUBIC         OFF         [  0]    ***   
       CURVILINEAR          ICURVY         OFF         [  0]    ***   
       DBOC                 IDBOC          OFF         [  0]    ***   
       DCT                  IDCT           OFF         [  0]    ***   
       DERIV_LEV            IDRLVL         ZERO        [  0]    ***   
       DEVMEM_SIZE          IDVMEM         *********           MByte  
       DIAG_MRCC            IEOMST          10D-  0             ***   
       DIFF_TYPE            IDIFTY         RELAXED     [  0]    ***   
       DIRECT               IDIRCT         OFF         [  0]    ***   
       DROPMO               IDRPMO      NONE         
       ECP                  IECP           OFF         [  0]    ***   
       EIGENVECTOR          IVEC                1               ***   
       EL_ANHARM            IELANH         OFF         [  0]    ***   
       EOMFOLLOW            IEOMSR         ENERGY      [  0]    ***   
       EOMIP                IEOMIP         OFF         [  0]    ***   
       EOMLEVEL             HBARFM         SAME        [  0]    ***   
       EOM_MRCC             IMRCCE         NEW         [  1]    ***   
       EOM_NONIT            EOMNON         OFF         [  0]    ***   
       EOM_NSING            IEOMSI          10D-  0             ***   
       EOM_NSTATES          IMRCCD         DAVIDSON    [  0]    ***   
       EOM_NTRIP            IEOMTR          10D-  0             ***   
       EOM_ORDER            IEXORD         ENERGY      [  0]    ***   
       EOM_PROPSTA          IEOMST              0               ***   
       ESTATE_CONV          IEXTOL          10D-  5             ***   
       ESTATE_DIAG          IEXDIG         ITERATIVE   [  0]    ***   
       ESTATE_LOCK          IESLOC         ON          [  1]    ***   
       ESTATE_MAXC          IEXMXC             40               ***   
       ESTATE_PROP          IEXPRP         OFF         [  0]    ***   
       EVAL_HESS            IRECAL              0            # of cyc.
       EXCITATION           IEXCIT              0               ***   
       EXCITE               IEXCIT         NONE        [  0]    ***   
       EXTERN_POT           IEXPOT         OFF         [  0]    ***   
       FCGRADNEW            IFCGNW         OFF         [  0]    ***   
       FC_FIELD             IFINFC              0             x 10-6  
       FD_CALTYPE           IFDCAL         GRADONLY    [  0]    ***   
       FD_PROJECT           IFDPRJ         OFF         [  1]    ***   
       FD_STEPSIZE          IDISFD              0            10-4 bohr
       FD_USEGROUP          IFDGRP         FULL        [  0]    ***   
       FILE_RECSIZ          IFLREC              4096           words  
       FINITE_PERT          IFIPER              0             x 10-6  
       FIXGEOM              IFIXGM         OFF         [  0]    ***   
       FOCK                 IFOCK          AO          [  1]    ***   
       FREQ_ALGORI          IVIALG         STANDARD    [  0]    ***   
       FROZEN_CORE          IFROCO         OFF         [  0]    ***   
       GAMMA_ABCD           IGABCD         STORE       [  0]    ***   
       GAMMA_ABCI           IGABCI         STORE       [  0]    ***   
       GENBAS_1             IGNBS1              0               ***   
       GENBAS_2             IGNBS2              0               ***   
       GENBAS_3             IGNBS3              0               ***   
       GENBAS_4             IGNBS4              0               ***   
       GEO_CONV             ICONTL              5              H/bohr 
       GEO_MAXCYC           IOPTCY             50               ***   
       GEO_MAXSTEP          IMXSTP            300            millibohr
       GEO_METHOD           INR            SINGLE_POINT[  5]    ***   
       GIAO                 IGIAO          OFF         [  1]    ***   
       GIMIC                IGIMIC         OFF         [  0]    ***   
       GRID                 IGRID          OFF         [  0]    ***   
       GRID_ALGO            IGALGO         SERIAL      [  0]    ***   
       GUESS                IGUESS         MOREAD      [  0]    ***   
       HBAR                 IHBAR          OFF         [  0]    ***   
       HESS_TYPE            IHESTP         SCF         [  0]    ***   
       HF2_FILE             IHF2Fl         USE         [  1]    ***   
       HFSTABILITY          ISTABL         OFF         [  0]    ***   
       INCORE               INCORE         OFF         [  0]    ***   
       INPUT_MRCC           IMRCC          ON          [  1]    ***   
       INTEGRALS            INTTYP         VMOL        [  1]    ***   
       JODA_PRINT           IJPRNT              0               ***   
       KEYWORD_OUT          IDMPKW         NO          [  0]    ***   
       LINDEP_TOL           ILINDP              8               ***   
       LINEQ_CONV           IZTACN          10D-  7           cycles  
       LINEQ_EXPOR          ILMAXD              5               ***   
       LINEQ_MAXCY          ILMAXC            100               ***   
       LINEQ_TYPE           ILTYPE         DIIS        [  1]    ***   
       LOCK_ORBOCC          ILOCOC         OFF         [  0]    ***   
       MEMORY_SIZE          IMEMSZ         *********           words  
       MEM_UNIT             IMEMU          GB          [  3]    ***   
       MRCC                 IMRCCC         OFF         [  0]    ***   
       MULTIPLICTY          IMULTP              4               ***   
       NACOUPLING           IVCOUP         OFF         [  0]    ***   
       NEGEVAL              IDIE           ABORT       [  0]    ***   
       NEWNORM              INEWNO         OFF         [  0]    ***   
       NON-HF               INONHF         ON          [  1]    ***   
       NTOP_TAMP            ITOPT2             15               ***   
       NUC_MODEL            INUCMO         POINT       [  0]    ***   
       OCCUPATION           IOCCU  A   2,  1,  1,  0,  1,  0,  0,  0,
                                   B   2,  0,  0,  0,  0,  0,  0,  0,
       OPEN-SHELL           IOPEN          SPIN-ORBITAL[  0]    ***   
       OPTVIB               IOPTVB         OFF         [  0]    ***   
       ORBITALS             IORBTP         SEMICANONICA[  1]    ***   
       PARALLEL             IPARAL         ON          [  1]    ***   
       PARA_INT             IPINTS         ON          [  1]    ***   
       PARA_PRINT           IPPRIN              0               ***   
       PERT_ORB             IPTORB         STANDARD    [  0]    ***   
       POINTS               IGRDFD              0               ***   
       PRINT                IPRNT               0               ***   
       PROPS                IPROPS         OFF         [  0]    ***   
       PROP_INTEGR          IINTYP         INTERNAL    [  0]    ***   
       PSI                  IPSI           OFF         [  0]    ***   
       QC_ALG               IQCALG         FLM         [  0]    ***   
       QC_LINALG            IQCLIN         TRIDIAG     [  2]    ***   
       QC_MAXCYC            IQCMAX          10D-100           cycles  
       QC_MAXSCFCY          IQCMSC          10D- 15           cycles  
       QC_RTRUST            IQCRTR          10D-  0           x 10-3  
       QC_SKIPSCF           IQCSKI         OFF         [  0]    ***   
       QC_START             IQCSTA          10D-  1             ***   
       QRHFGUESS            IQGUES         OFF         [  0]    ***   
       QUARTIC              IQUART         OFF         [  0]    ***   
       RAMAN_INT            IRAMIN         OFF         [  0]    ***   
       RAMAN_ORB            IRAMRE         UNRELAXED   [  0]    ***   
       RDO                  IRDOFM         OFF         [  0]    ***   
       REDUCE_REPR          REDREP         Ir          [  0]    ***   
       REFERENCE            IREFNC         ROHF        [  2]    ***   
       RELATIVIST           IRELAT         OFF         [  0]    ***   
       RELAX_DENS           IRDENS         OFF         [  0]    ***   
       RESET_FLAGS          IRESET         OFF         [  0]    ***   
       RESTART_CC           ICCRES         OFF         [  0]    ***   
       ROT_EVEC             ROTVEC              0               ***   
       SAVE_INTS            ISVINT         ON          [  1]    ***   
       SCALE_ON             ISTCRT              0               ***   
       SCF_CONV             ISCFCV          10D- 10             ***   
       SCF_DAMPING          IDAMP               0             x 10-3  
       SCF_EXPORDE          IRPPOR              6               ***   
       SCF_EXPSTAR          IRPPLS              5               ***   
       SCF_EXTRAPO          IRPP           ON          [  1]    ***   
       SCF_MAXCYC           ISCFCY            ***              cycles 
       SCF_NOSTOP           ISCFST         OFF         [  0]    ***   
       SCF_PRINT            ISCFPR              0               ***   
       SCF_PROG             ISCFPR         SCF         [  0]    ***   
       SD_FIELD             IFINSD              0             x 10-6  
       SOPERT               IPERSO         OFF         [  0]    ***   
       SPHERICAL            IDFGHI         ON          [  1]    ***   
       SPINORBIT            ISOCAL         OFF         [  0]    ***   
       SPINROTATIO          ISRCON         OFF         [  0]    ***   
       SPIN_FLIP            ISPFLP         OFF         [  0]    ***   
       SPIN_ORBIT           ISPORB         OFF         [  0]    ***   
       SPIN_SCAL            ISCSMP         OFF         [  0]    ***   
       STEEPSCALE           ISTPSC              1000          x 10-3  
       SUBGROUP             ISUBGP         DEFAULT     [  0]    ***   
       SUBGRPAXIS           ISBXYZ         X           [  0]    ***   
       SYMMETRY             ISYM           ON          [  0]    ***   
       SYM_CHECK            ISYMCK         OVERRIDE    [  1]    ***   
       T3_EXTRAPOL          IT3EXT         ON          [  1]    ***   
       T4_EXTRAPOL          IT4EXP         OFF         [  0]    ***   
       TAMP_SUM             IEVERY              5               ***   
       TESTSUITE            ITESTS         OFF         [  0]    ***   
       THERMOCH             ITHERM         OFF         [  0]    ***   
       TOL_CHOLESK          ITOLCH          10D-  4             ***   
       TRANGRAD             IRESRM         OFF         [  0]    ***   
       TRANS_INV            ITRAIN         USE         [  0]    ***   
       TREAT_PERT           ITREAT         SIMULTANEOUS[  0]    ***   
       TRIP_ALGORI          ITRALG         NORMAL      [  0]    ***   
       UIJ_THRESHO          IUIJTH              1               ***   
       UNITS                IUNITS         ANGSTROM    [  0]    ***   
       UNOS                 IUNOS          OFF         [  0]    ***   
       UPDATE_HESS          IHUPDT         ON          [  1]    ***   
       VIBPHASE             ISETPH         STANDARD    [  0]    ***   
       VIBRATION            IVIB           NO          [  0]    ***   
       VIB_ALGORIT          IGEALG         STANDARD    [  0]    ***   
       VNATORB              IVNORB         OFF         [  0]    ***   
       VTRAN                IVTRAN         FULL/PARTIAL[  0]    ***   
       XFIELD               IXEFLD              0             x 10-6  
       XFORM_TOL            IXFTOL          10D- 18             ***   
       YFIELD               IYEFLD              0             x 10-6  
       ZFIELD               IZEFLD              0             x 10-6  
       ZSCALE_EXP           IZEXPS         OFF         [  0]    ***   
    -------------------------------------------------------------------
   1 entries found in Z-matrix 
   Job Title : Test                                                                            
   Rotational constants (in cm-1): 

   Rotational constants (in MHz): 

********************************************************************************
   The full molecular point group is I h .
   The largest Abelian subgroup of the full molecular point group is D2h .
   The computational point group is D2h .
********************************************************************************
  ECPDATA file not present.   Using default ECPDATA. 
  @GTFLGS-W, Keyword #FROZEN_CORE not known and is ignored.
  @GTFLGS-W, Keyword #DROPMO not known and is ignored.
  @GTFLGS-W, Keyword #INPUT_MRCC not known and is ignored.
  @GTFLGS-W, Keyword #CC_PROG not known and is ignored.
  @GTFLGS-W, Keyword #SCF_DAMPING not known and is ignored.
  There are  279 basis functions.
 @GEOPT-W, Archive file not created for single-point calculation.
 @CHECKOUT-I, Total execution time (CPU/WALL):        0.26/       0.51 seconds.
--executable xjoda finished with status     0 in        0.56 seconds (walltime).
 --invoking executable--
/cvmfs/restricted.computecanada.ca/easybuild/software/2020/avx2/Compiler/intel2020/cfour/2.1/bin/xvmol
 SERIAL VERSION OF MOLECULE STARTED
********************************************************************************
                    INPUT FROM MOL FILE
********************************************************************************
INTGRL        1    0    1    0    0    0    0    0    0                         
         *** CFOUR Program System (Release V0.1) ***                            
Test                                                                            
    1    3 X  Y   Z   0.10E-08              0    0                              
   9999.00      3.00                                                            
          7.00000000    1    7    1    1    1    1    1    1    1               
N #1   0.000000000000000   0.000000000000000   0.000000000000000                
   22   13                                                                      
   432300.000000000       5.500000000000000E-006 -1.200000000000000E-006        
  0.000000000000000E+000  0.000000000000000E+000  0.000000000000000E+000        
  0.000000000000000E+000  0.000000000000000E+000  0.000000000000000E+000        
  0.000000000000000E+000  0.000000000000000E+000  0.000000000000000E+000        
  0.000000000000000E+000  0.000000000000000E+000                                
   64700.0000000000       4.350000000000000E-005 -9.500000000000001E-006        
  0.000000000000000E+000  0.000000000000000E+000  0.000000000000000E+000        
  0.000000000000000E+000  0.000000000000000E+000  0.000000000000000E+000        
  0.000000000000000E+000  0.000000000000000E+000  0.000000000000000E+000        
  0.000000000000000E+000  0.000000000000000E+000                                
   14720.0000000000       2.289000000000000E-004 -5.050000000000000E-005        
  0.000000000000000E+000  0.000000000000000E+000  0.000000000000000E+000        
  0.000000000000000E+000  0.000000000000000E+000  0.000000000000000E+000        
  0.000000000000000E+000  0.000000000000000E+000  0.000000000000000E+000        
  0.000000000000000E+000  0.000000000000000E+000                                
   4170.00000000000       9.650000000000000E-004 -2.126000000000000E-004        
  0.000000000000000E+000  0.000000000000000E+000  0.000000000000000E+000        
  0.000000000000000E+000  0.000000000000000E+000  0.000000000000000E+000        
  0.000000000000000E+000  0.000000000000000E+000  0.000000000000000E+000        
  0.000000000000000E+000  0.000000000000000E+000                                
   1361.00000000000       3.502100000000000E-003 -7.753000000000000E-004        
  0.000000000000000E+000  0.000000000000000E+000  0.000000000000000E+000        
  0.000000000000000E+000  0.000000000000000E+000  0.000000000000000E+000        
  0.000000000000000E+000  0.000000000000000E+000  0.000000000000000E+000        
  0.000000000000000E+000  0.000000000000000E+000                                
   491.200000000000       1.129210000000000E-002 -2.506200000000000E-003        
  0.000000000000000E+000  0.000000000000000E+000  0.000000000000000E+000        
  0.000000000000000E+000  0.000000000000000E+000  0.000000000000000E+000        
  0.000000000000000E+000  0.000000000000000E+000  0.000000000000000E+000        
  0.000000000000000E+000  0.000000000000000E+000                                
   191.600000000000       3.261280000000000E-002 -7.365200000000000E-003        
  0.000000000000000E+000  0.000000000000000E+000  0.000000000000000E+000        
  0.000000000000000E+000  0.000000000000000E+000  0.000000000000000E+000        
  0.000000000000000E+000  0.000000000000000E+000  0.000000000000000E+000        
  0.000000000000000E+000  0.000000000000000E+000                                
   79.4100000000000       8.329720000000000E-002 -1.930160000000000E-002        
  0.000000000000000E+000  0.000000000000000E+000  0.000000000000000E+000        
  0.000000000000000E+000  0.000000000000000E+000  0.000000000000000E+000        
  0.000000000000000E+000  0.000000000000000E+000  0.000000000000000E+000        
  0.000000000000000E+000  0.000000000000000E+000                                
   34.5300000000000       0.179985600000000      -4.471730000000000E-002        
  0.000000000000000E+000  0.000000000000000E+000  0.000000000000000E+000        
  0.000000000000000E+000  0.000000000000000E+000  0.000000000000000E+000        
  0.000000000000000E+000  0.000000000000000E+000  0.000000000000000E+000        
  0.000000000000000E+000  0.000000000000000E+000                                
   15.5800000000000       0.305003500000000      -8.606640000000000E-002        
  0.000000000000000E+000  0.000000000000000E+000  0.000000000000000E+000        
  0.000000000000000E+000  0.000000000000000E+000  0.000000000000000E+000        
  0.000000000000000E+000  0.000000000000000E+000  0.000000000000000E+000        
  0.000000000000000E+000  0.000000000000000E+000                                
   7.23200000000000       0.341159300000000      -0.133296200000000             
  0.000000000000000E+000  0.000000000000000E+000  0.000000000000000E+000        
  0.000000000000000E+000  0.000000000000000E+000  0.000000000000000E+000        
  0.000000000000000E+000  0.000000000000000E+000  0.000000000000000E+000        
  0.000000000000000E+000  0.000000000000000E+000                                
   3.38200000000000       0.000000000000000E+000  0.000000000000000E+000        
   1.00000000000000       0.000000000000000E+000  0.000000000000000E+000        
  0.000000000000000E+000  0.000000000000000E+000  0.000000000000000E+000        
  0.000000000000000E+000  0.000000000000000E+000  0.000000000000000E+000        
  0.000000000000000E+000  0.000000000000000E+000                                
   1.36900000000000       0.000000000000000E+000  0.000000000000000E+000        
  0.000000000000000E+000   1.00000000000000       0.000000000000000E+000        
  0.000000000000000E+000  0.000000000000000E+000  0.000000000000000E+000        
  0.000000000000000E+000  0.000000000000000E+000  0.000000000000000E+000        
  0.000000000000000E+000  0.000000000000000E+000                                
  0.624800000000000       0.000000000000000E+000  0.000000000000000E+000        
  0.000000000000000E+000  0.000000000000000E+000   1.00000000000000             
  0.000000000000000E+000  0.000000000000000E+000  0.000000000000000E+000        
  0.000000000000000E+000  0.000000000000000E+000  0.000000000000000E+000        
  0.000000000000000E+000  0.000000000000000E+000                                
  0.274700000000000       0.000000000000000E+000  0.000000000000000E+000        
  0.000000000000000E+000  0.000000000000000E+000  0.000000000000000E+000        
   1.00000000000000       0.000000000000000E+000  0.000000000000000E+000        
  0.000000000000000E+000  0.000000000000000E+000  0.000000000000000E+000        
  0.000000000000000E+000  0.000000000000000E+000                                
  0.119200000000000       0.000000000000000E+000  0.000000000000000E+000        
  0.000000000000000E+000  0.000000000000000E+000  0.000000000000000E+000        
  0.000000000000000E+000   1.00000000000000       0.000000000000000E+000        
  0.000000000000000E+000  0.000000000000000E+000  0.000000000000000E+000        
  0.000000000000000E+000  0.000000000000000E+000                                
   246.262000000000       0.000000000000000E+000  0.000000000000000E+000        
  0.000000000000000E+000  0.000000000000000E+000  0.000000000000000E+000        
  0.000000000000000E+000  0.000000000000000E+000   1.00000000000000             
  0.000000000000000E+000  0.000000000000000E+000  0.000000000000000E+000        
  0.000000000000000E+000  0.000000000000000E+000                                
   124.187000000000       0.000000000000000E+000  0.000000000000000E+000        
  0.000000000000000E+000  0.000000000000000E+000  0.000000000000000E+000        
  0.000000000000000E+000  0.000000000000000E+000  0.000000000000000E+000        
   1.00000000000000       0.000000000000000E+000  0.000000000000000E+000        
  0.000000000000000E+000  0.000000000000000E+000                                
   62.6260000000000       0.000000000000000E+000  0.000000000000000E+000        
  0.000000000000000E+000  0.000000000000000E+000  0.000000000000000E+000        
  0.000000000000000E+000  0.000000000000000E+000  0.000000000000000E+000        
  0.000000000000000E+000   1.00000000000000       0.000000000000000E+000        
  0.000000000000000E+000  0.000000000000000E+000                                
   31.5810000000000       0.000000000000000E+000  0.000000000000000E+000        
  0.000000000000000E+000  0.000000000000000E+000  0.000000000000000E+000        
  0.000000000000000E+000  0.000000000000000E+000  0.000000000000000E+000        
  0.000000000000000E+000  0.000000000000000E+000   1.00000000000000             
  0.000000000000000E+000  0.000000000000000E+000                                
   15.9260000000000       0.000000000000000E+000  0.000000000000000E+000        
  0.000000000000000E+000  0.000000000000000E+000  0.000000000000000E+000        
  0.000000000000000E+000  0.000000000000000E+000  0.000000000000000E+000        
  0.000000000000000E+000  0.000000000000000E+000  0.000000000000000E+000        
   1.00000000000000       0.000000000000000E+000                                
  4.714000000000000E-002  0.000000000000000E+000  0.000000000000000E+000        
  0.000000000000000E+000  0.000000000000000E+000  0.000000000000000E+000        
  0.000000000000000E+000  0.000000000000000E+000  0.000000000000000E+000        
  0.000000000000000E+000  0.000000000000000E+000  0.000000000000000E+000        
  0.000000000000000E+000   1.00000000000000                                     
   16   12                                                                      
   415.900000000000       1.484000000000000E-004  0.000000000000000E+000        
  0.000000000000000E+000  0.000000000000000E+000  0.000000000000000E+000        
  0.000000000000000E+000  0.000000000000000E+000  0.000000000000000E+000        
  0.000000000000000E+000  0.000000000000000E+000  0.000000000000000E+000        
  0.000000000000000E+000                                                        
   98.6100000000000       1.276300000000000E-003  0.000000000000000E+000        
  0.000000000000000E+000  0.000000000000000E+000  0.000000000000000E+000        
  0.000000000000000E+000  0.000000000000000E+000  0.000000000000000E+000        
  0.000000000000000E+000  0.000000000000000E+000  0.000000000000000E+000        
  0.000000000000000E+000                                                        
   31.9200000000000       6.702400000000000E-003  0.000000000000000E+000        
  0.000000000000000E+000  0.000000000000000E+000  0.000000000000000E+000        
  0.000000000000000E+000  0.000000000000000E+000  0.000000000000000E+000        
  0.000000000000000E+000  0.000000000000000E+000  0.000000000000000E+000        
  0.000000000000000E+000                                                        
   12.0000000000000       2.526170000000000E-002  0.000000000000000E+000        
  0.000000000000000E+000  0.000000000000000E+000  0.000000000000000E+000        
  0.000000000000000E+000  0.000000000000000E+000  0.000000000000000E+000        
  0.000000000000000E+000  0.000000000000000E+000  0.000000000000000E+000        
  0.000000000000000E+000                                                        
   4.91900000000000       7.518940000000000E-002  0.000000000000000E+000        
  0.000000000000000E+000  0.000000000000000E+000  0.000000000000000E+000        
  0.000000000000000E+000  0.000000000000000E+000  0.000000000000000E+000        
  0.000000000000000E+000  0.000000000000000E+000  0.000000000000000E+000        
  0.000000000000000E+000                                                        
   2.14800000000000       0.000000000000000E+000   1.00000000000000             
  0.000000000000000E+000  0.000000000000000E+000  0.000000000000000E+000        
  0.000000000000000E+000  0.000000000000000E+000  0.000000000000000E+000        
  0.000000000000000E+000  0.000000000000000E+000  0.000000000000000E+000        
  0.000000000000000E+000                                                        
  0.969600000000000       0.000000000000000E+000  0.000000000000000E+000        
   1.00000000000000       0.000000000000000E+000  0.000000000000000E+000        
  0.000000000000000E+000  0.000000000000000E+000  0.000000000000000E+000        
  0.000000000000000E+000  0.000000000000000E+000  0.000000000000000E+000        
  0.000000000000000E+000                                                        
  0.439900000000000       0.000000000000000E+000  0.000000000000000E+000        
  0.000000000000000E+000   1.00000000000000       0.000000000000000E+000        
  0.000000000000000E+000  0.000000000000000E+000  0.000000000000000E+000        
  0.000000000000000E+000  0.000000000000000E+000  0.000000000000000E+000        
  0.000000000000000E+000                                                        
  0.197800000000000       0.000000000000000E+000  0.000000000000000E+000        
  0.000000000000000E+000  0.000000000000000E+000   1.00000000000000             
  0.000000000000000E+000  0.000000000000000E+000  0.000000000000000E+000        
  0.000000000000000E+000  0.000000000000000E+000  0.000000000000000E+000        
  0.000000000000000E+000                                                        
  8.603000000000000E-002  0.000000000000000E+000  0.000000000000000E+000        
  0.000000000000000E+000  0.000000000000000E+000  0.000000000000000E+000        
   1.00000000000000       0.000000000000000E+000  0.000000000000000E+000        
  0.000000000000000E+000  0.000000000000000E+000  0.000000000000000E+000        
  0.000000000000000E+000                                                        
   270.142000000000       0.000000000000000E+000  0.000000000000000E+000        
  0.000000000000000E+000  0.000000000000000E+000  0.000000000000000E+000        
  0.000000000000000E+000   1.00000000000000       0.000000000000000E+000        
  0.000000000000000E+000  0.000000000000000E+000  0.000000000000000E+000        
  0.000000000000000E+000                                                        
   123.465000000000       0.000000000000000E+000  0.000000000000000E+000        
  0.000000000000000E+000  0.000000000000000E+000  0.000000000000000E+000        
  0.000000000000000E+000  0.000000000000000E+000   1.00000000000000             
  0.000000000000000E+000  0.000000000000000E+000  0.000000000000000E+000        
  0.000000000000000E+000                                                        
   56.4280000000000       0.000000000000000E+000  0.000000000000000E+000        
  0.000000000000000E+000  0.000000000000000E+000  0.000000000000000E+000        
  0.000000000000000E+000  0.000000000000000E+000  0.000000000000000E+000        
   1.00000000000000       0.000000000000000E+000  0.000000000000000E+000        
  0.000000000000000E+000                                                        
   25.7900000000000       0.000000000000000E+000  0.000000000000000E+000        
  0.000000000000000E+000  0.000000000000000E+000  0.000000000000000E+000        
  0.000000000000000E+000  0.000000000000000E+000  0.000000000000000E+000        
  0.000000000000000E+000   1.00000000000000       0.000000000000000E+000        
  0.000000000000000E+000                                                        
   11.7870000000000       0.000000000000000E+000  0.000000000000000E+000        
  0.000000000000000E+000  0.000000000000000E+000  0.000000000000000E+000        
  0.000000000000000E+000  0.000000000000000E+000  0.000000000000000E+000        
  0.000000000000000E+000  0.000000000000000E+000   1.00000000000000             
  0.000000000000000E+000                                                        
  3.150000000000000E-002  0.000000000000000E+000  0.000000000000000E+000        
  0.000000000000000E+000  0.000000000000000E+000  0.000000000000000E+000        
  0.000000000000000E+000  0.000000000000000E+000  0.000000000000000E+000        
  0.000000000000000E+000  0.000000000000000E+000  0.000000000000000E+000        
   1.00000000000000                                                             
   10   10                                                                      
   6.71700000000000        1.00000000000000       0.000000000000000E+000        
  0.000000000000000E+000  0.000000000000000E+000  0.000000000000000E+000        
  0.000000000000000E+000  0.000000000000000E+000  0.000000000000000E+000        
  0.000000000000000E+000  0.000000000000000E+000                                
   2.89600000000000       0.000000000000000E+000   1.00000000000000             
  0.000000000000000E+000  0.000000000000000E+000  0.000000000000000E+000        
  0.000000000000000E+000  0.000000000000000E+000  0.000000000000000E+000        
  0.000000000000000E+000  0.000000000000000E+000                                
   1.24900000000000       0.000000000000000E+000  0.000000000000000E+000        
   1.00000000000000       0.000000000000000E+000  0.000000000000000E+000        
  0.000000000000000E+000  0.000000000000000E+000  0.000000000000000E+000        
  0.000000000000000E+000  0.000000000000000E+000                                
  0.538000000000000       0.000000000000000E+000  0.000000000000000E+000        
  0.000000000000000E+000   1.00000000000000       0.000000000000000E+000        
  0.000000000000000E+000  0.000000000000000E+000  0.000000000000000E+000        
  0.000000000000000E+000  0.000000000000000E+000                                
  0.232000000000000       0.000000000000000E+000  0.000000000000000E+000        
  0.000000000000000E+000  0.000000000000000E+000   1.00000000000000             
  0.000000000000000E+000  0.000000000000000E+000  0.000000000000000E+000        
  0.000000000000000E+000  0.000000000000000E+000                                
   199.920000000000       0.000000000000000E+000  0.000000000000000E+000        
  0.000000000000000E+000  0.000000000000000E+000  0.000000000000000E+000        
   1.00000000000000       0.000000000000000E+000  0.000000000000000E+000        
  0.000000000000000E+000  0.000000000000000E+000                                
   87.1110000000000       0.000000000000000E+000  0.000000000000000E+000        
  0.000000000000000E+000  0.000000000000000E+000  0.000000000000000E+000        
  0.000000000000000E+000   1.00000000000000       0.000000000000000E+000        
  0.000000000000000E+000  0.000000000000000E+000                                
   37.9570000000000       0.000000000000000E+000  0.000000000000000E+000        
  0.000000000000000E+000  0.000000000000000E+000  0.000000000000000E+000        
  0.000000000000000E+000  0.000000000000000E+000   1.00000000000000             
  0.000000000000000E+000  0.000000000000000E+000                                
   16.5390000000000       0.000000000000000E+000  0.000000000000000E+000        
  0.000000000000000E+000  0.000000000000000E+000  0.000000000000000E+000        
  0.000000000000000E+000  0.000000000000000E+000  0.000000000000000E+000        
   1.00000000000000       0.000000000000000E+000                                
  8.740000000000001E-002  0.000000000000000E+000  0.000000000000000E+000        
  0.000000000000000E+000  0.000000000000000E+000  0.000000000000000E+000        
  0.000000000000000E+000  0.000000000000000E+000  0.000000000000000E+000        
  0.000000000000000E+000   1.00000000000000                                     
    8    8                                                                      
   3.82900000000000        1.00000000000000       0.000000000000000E+000        
  0.000000000000000E+000  0.000000000000000E+000  0.000000000000000E+000        
  0.000000000000000E+000  0.000000000000000E+000  0.000000000000000E+000        
   1.79500000000000       0.000000000000000E+000   1.00000000000000             
  0.000000000000000E+000  0.000000000000000E+000  0.000000000000000E+000        
  0.000000000000000E+000  0.000000000000000E+000  0.000000000000000E+000        
  0.841000000000000       0.000000000000000E+000  0.000000000000000E+000        
   1.00000000000000       0.000000000000000E+000  0.000000000000000E+000        
  0.000000000000000E+000  0.000000000000000E+000  0.000000000000000E+000        
  0.394000000000000       0.000000000000000E+000  0.000000000000000E+000        
  0.000000000000000E+000   1.00000000000000       0.000000000000000E+000        
  0.000000000000000E+000  0.000000000000000E+000  0.000000000000000E+000        
   105.346000000000       0.000000000000000E+000  0.000000000000000E+000        
  0.000000000000000E+000  0.000000000000000E+000   1.00000000000000             
  0.000000000000000E+000  0.000000000000000E+000  0.000000000000000E+000        
   37.5300000000000       0.000000000000000E+000  0.000000000000000E+000        
  0.000000000000000E+000  0.000000000000000E+000  0.000000000000000E+000        
   1.00000000000000       0.000000000000000E+000  0.000000000000000E+000        
   13.3700000000000       0.000000000000000E+000  0.000000000000000E+000        
  0.000000000000000E+000  0.000000000000000E+000  0.000000000000000E+000        
  0.000000000000000E+000   1.00000000000000       0.000000000000000E+000        
  0.151000000000000       0.000000000000000E+000  0.000000000000000E+000        
  0.000000000000000E+000  0.000000000000000E+000  0.000000000000000E+000        
  0.000000000000000E+000  0.000000000000000E+000   1.00000000000000             
    6    6                                                                      
   3.85600000000000        1.00000000000000       0.000000000000000E+000        
  0.000000000000000E+000  0.000000000000000E+000  0.000000000000000E+000        
  0.000000000000000E+000                                                        
   1.70200000000000       0.000000000000000E+000   1.00000000000000             
  0.000000000000000E+000  0.000000000000000E+000  0.000000000000000E+000        
  0.000000000000000E+000                                                        
  0.751000000000000       0.000000000000000E+000  0.000000000000000E+000        
   1.00000000000000       0.000000000000000E+000  0.000000000000000E+000        
  0.000000000000000E+000                                                        
   67.1880000000000       0.000000000000000E+000  0.000000000000000E+000        
  0.000000000000000E+000   1.00000000000000       0.000000000000000E+000        
  0.000000000000000E+000                                                        
   20.3600000000000       0.000000000000000E+000  0.000000000000000E+000        
  0.000000000000000E+000  0.000000000000000E+000   1.00000000000000             
  0.000000000000000E+000                                                        
  0.326000000000000       0.000000000000000E+000  0.000000000000000E+000        
  0.000000000000000E+000  0.000000000000000E+000  0.000000000000000E+000        
   1.00000000000000                                                             
    4    4                                                                      
   2.87500000000000        1.00000000000000       0.000000000000000E+000        
  0.000000000000000E+000  0.000000000000000E+000                                
   1.17000000000000       0.000000000000000E+000   1.00000000000000             
  0.000000000000000E+000  0.000000000000000E+000                                
   52.0500000000000       0.000000000000000E+000  0.000000000000000E+000        
   1.00000000000000       0.000000000000000E+000                                
  0.587000000000000       0.000000000000000E+000  0.000000000000000E+000        
  0.000000000000000E+000   1.00000000000000                                     
    2    2                                                                      
   2.09900000000000        1.00000000000000       0.000000000000000E+000        
   1.04100000000000       0.000000000000000E+000   1.00000000000000             
FINISH                                                                          
 
********************************************************************************
 ONE- AND TWO-ELECTRON INTEGRALS OVER SYMMETRY-ADAPTED AOS ARE CALCULATED.

  SPHERICAL HARMONICS ARE USED.
  
  INTEGRALS LESS THAN  0.10E-13 ARE NEGLECTED.

   BASIS FUNCTION NOT NORMALIZED: 
   CENTER (AS ORDERED IN MOL FILE):   1
   ANGULAR MOMENTUM TYPE          : S
   OFFSET WITHIN ANGULAR MOMENTUM :  1
   <CHI|CHI>                      :    1.1714440624
   BASIS FUNCTION NOT NORMALIZED: 
   CENTER (AS ORDERED IN MOL FILE):   1
   ANGULAR MOMENTUM TYPE          : S
   OFFSET WITHIN ANGULAR MOMENTUM :  2
   <CHI|CHI>                      :    3.7623155081
   BASIS FUNCTION NOT NORMALIZED: 
   CENTER (AS ORDERED IN MOL FILE):   1
   ANGULAR MOMENTUM TYPE          : P
   OFFSET WITHIN ANGULAR MOMENTUM :  1
   <CHI|CHI>                      :    9.9907394657
  NUCLEAR REPULSION ENERGY :    0.0000000000 A.U.
  @MOLECU-I, ONE ELECTRON INTEGRALS (CPU/WALL):        0.17/       0.18 SECONDS.
  @TWOEL-I,    1840768 INTEGRALS OF SYMMETRY TYPE  I I I I
  @TWOEL-I,   17046861 INTEGRALS OF SYMMETRY TYPE  I J I J
  @TWOEL-I,    9616124 INTEGRALS OF SYMMETRY TYPE  I I J J
  @TWOEL-I,   42389562 INTEGRALS OF SYMMETRY TYPE  I J K L
  @TWOEL-I, TOTAL NUMBER OF 2-E INTEGRALS   70893315.
  @MOLECU-I, TWO ELECTRON INTEGRALS (CPU/WALL):      261.99/     262.15 SECONDS.
 @CHECKOUT-I, Total execution time (CPU/WALL):      262.19/     262.37 seconds.

OMP_NUM_THREADS not specified; defaulting to 1
Running with 1 threads/proc

--executable xvmol finished with status     0 in      262.40 seconds (walltime).
 --invoking executable--
/cvmfs/restricted.computecanada.ca/easybuild/software/2020/avx2/Compiler/intel2020/cfour/2.1/bin/xvmol2ja
 @GETMEM-I,  Allocated   28610 MB of main memory.
 @CHECKOUT-I, Total execution time (CPU/WALL):        0.06/       0.06 seconds.
--executable xvmol2ja finished with status     0 in        0.10 seconds (walltime).
 --invoking executable--
/cvmfs/restricted.computecanada.ca/easybuild/software/2020/avx2/Compiler/intel2020/cfour/2.1/bin/xvscf
  There are  279 functions in the AO basis.

  There are 8 irreducible representations.

       Irrep        # of functions
         1                 59
         2                 40
         3                 40
         4                 28
         5                 40
         6                 28
         7                 28
         8                 16


  Parameters for SCF calculation: 
        SCF reference function: ROHF  
  Maximum number of iterations: 9999
     Full symmetry point group: I h 
     Computational point group: D2h 
        Initial density matrix: MOREAD                 
     SCF convergence tolerance: 10**(-10)
  DIIS convergence acceleration:  ON
          Latest start for DIIS:   5
                     DIIS order:   6

     Alpha population by irrep:   2    1    1    0    1    0    0    0
      Beta population by irrep:   2    0    0    0    0    0    0    0


  Memory information:    5506270 words required.
  Fock matrices are constructed from AO integral file.
 @GETMEM-I,  Allocated      42 MB of main memory.
  Initialization and symmetry analysis required      0.002 seconds.

 total no. of electrons in initial guess :  0.000000000000000E+000
 total no. of electrons in initial guess :  0.000000000000000E+000
  --------------------------------------------------------------------
  Iteration         Total Energy            Largest Density Difference
  --------------------------------------------------------------------
       0             0.000000000000000              0.0000000000D+00
   current occupation vector 
     2  1  1  0  1  0  0  0
     2  0  0  0  0  0  0  0
       1           -49.150459232294097              0.9411126112D+00
   current occupation vector 
     2  1  1  0  1  0  0  0
     2  0  0  0  0  0  0  0
       2           -51.181584718119083              0.1699284545D+01
   current occupation vector 
     2  1  1  0  1  0  0  0
     2  0  0  0  0  0  0  0
       3           -53.904236812361944              0.1699265453D+01
   current occupation vector 
     2  1  1  0  1  0  0  0
     2  0  0  0  0  0  0  0
       4           -51.992833913243750              0.1479922568D+01
   current occupation vector 
     2  1  1  0  1  0  0  0
     2  0  0  0  0  0  0  0
       5           -54.037332179824816              0.1479671122D+01
   current occupation vector 
     2  1  1  0  1  0  0  0
     2  0  0  0  0  0  0  0
       6           -54.349460839293151              0.9926968639D-01
   current occupation vector 
     2  1  1  0  1  0  0  0
     2  0  0  0  0  0  0  0
       7           -54.396913471905087              0.6979689297D-01
   current occupation vector 
     2  1  1  0  1  0  0  0
     2  0  0  0  0  0  0  0
       8           -54.395371144140007              0.5352178535D-01
   current occupation vector 
     2  1  1  0  1  0  0  0
     2  0  0  0  0  0  0  0
       9           -54.400861793487039              0.3358800279D-01
   current occupation vector 
     2  1  1  0  1  0  0  0
     2  0  0  0  0  0  0  0
      10           -54.400920133146592              0.2681716360D-02
   current occupation vector 
     2  1  1  0  1  0  0  0
     2  0  0  0  0  0  0  0
      11           -54.400923659826340              0.5306486167D-03
   current occupation vector 
     2  1  1  0  1  0  0  0
     2  0  0  0  0  0  0  0
      12           -54.400923661019227              0.2132131152D-04
   current occupation vector 
     2  1  1  0  1  0  0  0
     2  0  0  0  0  0  0  0
      13           -54.400923661030781              0.2289366165D-05
   current occupation vector 
     2  1  1  0  1  0  0  0
     2  0  0  0  0  0  0  0
      14           -54.400923661031037              0.2305101599D-06
   current occupation vector 
     2  1  1  0  1  0  0  0
     2  0  0  0  0  0  0  0
      15           -54.400923661030966              0.2916975918D-07
   current occupation vector 
     2  1  1  0  1  0  0  0
     2  0  0  0  0  0  0  0
      16           -54.400923661030902              0.1492456456D-08
   current occupation vector 
     2  1  1  0  1  0  0  0
     2  0  0  0  0  0  0  0
      17           -54.400923661030966              0.2145042511D-09
   current occupation vector 
     2  1  1  0  1  0  0  0
     2  0  0  0  0  0  0  0

  SCF has converged.

 Density matrix saved to file den.dat
 total alpha spin electron number:   5.00000000000002     
 total  beta spin electron number:   2.00000000000001     
     E(ROHF)=       -54.400923661031044              0.6934036678D-10

  Eigenvector printing suppressed.


       The average multiplicity is    4.0000000
  The expectation value of S**2 is    3.7500000

 @PUTMOS-I, Writing converged MOs to NEWMOS. 
 @PUTMOS-I, Symmetry   1 Full Blocks 14 Partial Blocksize   3
 @PUTMOS-I, Symmetry   2 Full Blocks 10 Partial Blocksize   0
 @PUTMOS-I, Symmetry   3 Full Blocks 10 Partial Blocksize   0
 @PUTMOS-I, Symmetry   4 Full Blocks  7 Partial Blocksize   0
 @PUTMOS-I, Symmetry   5 Full Blocks 10 Partial Blocksize   0
 @PUTMOS-I, Symmetry   6 Full Blocks  7 Partial Blocksize   0
 @PUTMOS-I, Symmetry   7 Full Blocks  7 Partial Blocksize   0
 @PUTMOS-I, Symmetry   8 Full Blocks  4 Partial Blocksize   0
 @PUTFOCK-I, Writing converged Fock matrix to NEWFOCK. 
 @PUTFOCK-I, Symmetry   1 Full Blocks 14 Partial Blocksize   3
 @PUTFOCK-I, Symmetry   2 Full Blocks 10 Partial Blocksize   0
 @PUTFOCK-I, Symmetry   3 Full Blocks 10 Partial Blocksize   0
 @PUTFOCK-I, Symmetry   4 Full Blocks  7 Partial Blocksize   0
 @PUTFOCK-I, Symmetry   5 Full Blocks 10 Partial Blocksize   0
 @PUTFOCK-I, Symmetry   6 Full Blocks  7 Partial Blocksize   0
 @PUTFOCK-I, Symmetry   7 Full Blocks  7 Partial Blocksize   0
 @PUTFOCK-I, Symmetry   8 Full Blocks  4 Partial Blocksize   0
  @DMPJOB-I, Rotating orbitals to semicanonical basis.
             *** Eigenvalues correspond to new basis. ***

  @PRJDEN-I, Basis set contains h and/or higher angular momentum functions.
             Analysis of density matrix symmetry not available.
             Check irreps of the molecular orbitals in the full point group
             for presence of an asymmetric solution.

 
  ORBITAL EIGENVALUES (ALPHA)  (1H = 27.2113834 eV)

       MO #        E(hartree)               E(eV)           FULLSYM    COMPSYM
       ----   --------------------   --------------------   -------   ---------
    1     1         -15.6725593880        -426.4720223674      Ag        Ag (1)
    2     2          -1.1510336942         -31.3212191581      Ag        Ag (1)
    3   100          -0.5675890207         -15.4448824560     T1u       B3u (3)
    4   168          -0.5675890207         -15.4448824560     T1u       B1u (5)
    5    60          -0.5675890207         -15.4448824560     T1u       B2u (2)
  +++++++++++++++++++++++++++++++++++++++++++++++++++++++++++++++++++++++++++++
    6   101           0.0724430646           1.9712760052     T1u       B3u (3)
    7   169           0.0724430646           1.9712760052     T1u       B1u (5)
    8    61           0.0724430646           1.9712760052     T1u       B2u (2)
    9     3           0.0808860352           2.2010209145      Ag        Ag (1)
   10   236           0.2639378837           7.1821149473      Hg       B2g (7)
   11     4           0.2639378837           7.1821149473      Hg        Ag (1)
   12   208           0.2639378837           7.1821149473      Hg       B3g (6)
   13     5           0.2639378837           7.1821149473      Hg        Ag (1)
   14   140           0.2639378837           7.1821149473      Hg       B1g (4)
   15   102           0.3065095439           8.3405487143     T1u       B3u (3)
   16   170           0.3065095439           8.3405487143     T1u       B1u (5)
   17    62           0.3065095439           8.3405487143     T1u       B2u (2)
   18     6           0.4423436347          12.0367822387      Ag        Ag (1)
   19   264           0.6152417768          16.7415798722       u        Au (8)
   20   171           0.6152417768          16.7415798722       u       B1u (5)
   21    63           0.6152417768          16.7415798722       u       B2u (2)
   22   103           0.6152417768          16.7415798722       u       B3u (3)
   23   104           0.6152417768          16.7415798722       u       B3u (3)
   24   172           0.6152417768          16.7415798722       u       B1u (5)
   25    64           0.6152417768          16.7415798722       u       B2u (2)
   26   141           0.8015240864          21.8105792188      Hg       B1g (4)
   27   237           0.8015240864          21.8105792188      Hg       B2g (7)
   28     7           0.8015240864          21.8105792188      Hg        Ag (1)
   29   209           0.8015240864          21.8105792188      Hg       B3g (6)
   30     8           0.8015240864          21.8105792188      Hg        Ag (1)
   31    65           0.9334883879          25.4015104229     T1u       B2u (2)
   32   173           0.9334883879          25.4015104229     T1u       B1u (5)
   33   105           0.9334883879          25.4015104229     T1u       B3u (3)
   34     9           1.5468308049          42.0914060859      Ag        Ag (1)
   35    10           1.6288154034          44.3223204301       g        Ag (1)
   36    11           1.6288154034          44.3223204301       g        Ag (1)
   37   210           1.6288154034          44.3223204301       g       B3g (6)
   38   142           1.6288154034          44.3223204301       g       B1g (4)
   39    12           1.6288154034          44.3223204301       g        Ag (1)
   40   238           1.6288154034          44.3223204301       g       B2g (7)
   41   211           1.6288154034          44.3223204301       g       B3g (6)
   42   143           1.6288154034          44.3223204301       g       B1g (4)
   43   239           1.6288154034          44.3223204301       g       B2g (7)
   44   265           1.7956849461          48.8630715349       u        Au (8)
   45   174           1.7956849461          48.8630715349       u       B1u (5)
   46   175           1.7956849461          48.8630715349       u       B1u (5)
   47   106           1.7956849461          48.8630715349       u       B3u (3)
   48    66           1.7956849461          48.8630715349       u       B2u (2)
   49   107           1.7956849461          48.8630715349       u       B3u (3)
   50    67           1.7956849461          48.8630715349       u       B2u (2)
   51   144           1.9851763946          54.0193959905      Hg       B1g (4)
   52    13           1.9851763946          54.0193959905      Hg        Ag (1)
   53   212           1.9851763946          54.0193959905      Hg       B3g (6)
   54    14           1.9851763946          54.0193959905      Hg        Ag (1)
   55   240           1.9851763946          54.0193959905      Hg       B2g (7)
   56   108           2.4451629957          66.5362677525     T1u       B3u (3)
   57    68           2.4451629957          66.5362677525     T1u       B2u (2)
   58   176           2.4451629957          66.5362677525     T1u       B1u (5)
   59   177           3.4446131268          93.7326884585               B1u (5)
   60   109           3.4446131268          93.7326884585               B3u (3)
   61    69           3.4446131268          93.7326884585               B2u (2)
   62   266           3.4446131268          93.7326884585                Au (8)
   63    70           3.4446131268          93.7326884585               B2u (2)
   64   178           3.4446131268          93.7326884585               B1u (5)
   65   110           3.4446131268          93.7326884585               B3u (3)
   66    71           3.4446131268          93.7326884585               B2u (2)
   67   111           3.4446131268          93.7326884585               B3u (3)
   68   179           3.4446131268          93.7326884585               B1u (5)
   69   267           3.4446131268          93.7326884585                Au (8)
   70   268           4.2079948509         114.5053612332       u        Au (8)
   71   180           4.2079948509         114.5053612333       u       B1u (5)
   72    72           4.2079948509         114.5053612333       u       B2u (2)
   73   112           4.2079948509         114.5053612333       u       B3u (3)
   74   181           4.2079948509         114.5053612333       u       B1u (5)
   75   113           4.2079948509         114.5053612333       u       B3u (3)
   76    73           4.2079948509         114.5053612333       u       B2u (2)
   77   241           4.3388037276         118.0648517281       g       B2g (7)
   78    15           4.3388037276         118.0648517281       g        Ag (1)
   79   213           4.3388037276         118.0648517281       g       B3g (6)
   80    16           4.3388037276         118.0648517281       g        Ag (1)
   81   242           4.3388037276         118.0648517281       g       B2g (7)
   82    17           4.3388037276         118.0648517281       g        Ag (1)
   83   214           4.3388037276         118.0648517281       g       B3g (6)
   84   145           4.3388037276         118.0648517281       g       B1g (4)
   85   146           4.3388037276         118.0648517281       g       B1g (4)
   86    18           4.6052176704         125.3143436689      Ag        Ag (1)
   87    19           4.7238830623         128.5433931453      Hg        Ag (1)
   88    20           4.7238830623         128.5433931453      Hg        Ag (1)
   89   147           4.7238830623         128.5433931453      Hg       B1g (4)
   90   215           4.7238830623         128.5433931453      Hg       B3g (6)
   91   243           4.7238830623         128.5433931453      Hg       B2g (7)
   92   114           5.9937553444         163.0983746831     T1u       B3u (3)
   93    74           5.9937553444         163.0983746831     T1u       B2u (2)
   94   182           5.9937553444         163.0983746831     T1u       B1u (5)
   95    21           7.2023350675         195.9855008963    XXXX      XXXX (1)
   96   244           7.2023350675         195.9855008963    XXXX      XXXX (7)
   97   148           7.2023350675         195.9855008963    XXXX      XXXX (4)
   98   245           7.2023350675         195.9855008963    XXXX      XXXX (7)
   99   216           7.2023350675         195.9855008963    XXXX      XXXX (6)
  100    22           7.2023350675         195.9855008963    XXXX      XXXX (1)
  101    23           7.2023350675         195.9855008963    XXXX      XXXX (1)
  102   149           7.2023350675         195.9855008963    XXXX      XXXX (4)
  103   217           7.2023350675         195.9855008963    XXXX      XXXX (6)
  104    24           7.2023350675         195.9855008963    XXXX      XXXX (1)
  105   218           7.2023350675         195.9855008963    XXXX      XXXX (6)
  106   150           7.2023350675         195.9855008963    XXXX      XXXX (4)
  107   246           7.2023350675         195.9855008963    XXXX      XXXX (7)
  108    75           8.3581974545         227.4381154672               B2u (2)
  109   183           8.3581974545         227.4381154672               B1u (5)
  110   115           8.3581974545         227.4381154672               B3u (3)
  111    76           8.3581974545         227.4381154672               B2u (2)
  112   116           8.3581974545         227.4381154672               B3u (3)
  113   184           8.3581974545         227.4381154672               B1u (5)
  114   117           8.3581974545         227.4381154672               B3u (3)
  115   269           8.3581974545         227.4381154672                Au (8)
  116    77           8.3581974545         227.4381154672               B2u (2)
  117   185           8.3581974545         227.4381154672               B1u (5)
  118   270           8.3581974545         227.4381154672                Au (8)
  119   271           9.2845150621         252.6444990366       u        Au (8)
  120    78           9.2845150621         252.6444990366       u       B2u (2)
  121   186           9.2845150621         252.6444990366       u       B1u (5)
  122   118           9.2845150621         252.6444990366       u       B3u (3)
  123    79           9.2845150621         252.6444990366       u       B2u (2)
  124   187           9.2845150621         252.6444990366       u       B1u (5)
  125   119           9.2845150621         252.6444990366       u       B3u (3)
  126   247          10.1733638348         276.8313037772       g       B2g (7)
  127   248          10.1733638348         276.8313037772       g       B2g (7)
  128    25          10.1733638348         276.8313037772       g        Ag (1)
  129    26          10.1733638348         276.8313037772       g        Ag (1)
  130   151          10.1733638348         276.8313037772       g       B1g (4)
  131   219          10.1733638348         276.8313037772       g       B3g (6)
  132    27          10.1733638348         276.8313037772       g        Ag (1)
  133   152          10.1733638348         276.8313037772       g       B1g (4)
  134   220          10.1733638348         276.8313037772       g       B3g (6)
  135    28          11.1809988747         304.2504471747      Hg        Ag (1)
  136   221          11.1809988747         304.2504471747      Hg       B3g (6)
  137    29          11.1809988747         304.2504471747      Hg        Ag (1)
  138   153          11.1809988747         304.2504471748      Hg       B1g (4)
  139   249          11.1809988747         304.2504471748      Hg       B2g (7)
  140    30          13.0284098434         354.5210553420      Ag        Ag (1)
  141   188          14.5488706519         395.8948973450     T1u       B1u (5)
  142    80          14.5488706519         395.8948973450     T1u       B2u (2)
  143   120          14.5488706519         395.8948973450     T1u       B3u (3)
  144   250          17.2976278722         470.6923839419    XXXX      XXXX (7)
  145    31          17.2976278722         470.6923839419    XXXX      XXXX (1)
  146   251          17.2976278722         470.6923839419    XXXX      XXXX (7)
  147    32          17.2976278722         470.6923839419    XXXX      XXXX (1)
  148   222          17.2976278722         470.6923839419    XXXX      XXXX (6)
  149    33          17.2976278722         470.6923839419    XXXX      XXXX (1)
  150   252          17.2976278722         470.6923839419    XXXX      XXXX (7)
  151   154          17.2976278722         470.6923839419    XXXX      XXXX (4)
  152    34          17.2976278722         470.6923839419    XXXX      XXXX (1)
  153   223          17.2976278722         470.6923839419    XXXX      XXXX (6)
  154   155          17.2976278722         470.6923839419    XXXX      XXXX (4)
  155   224          17.2976278722         470.6923839419    XXXX      XXXX (6)
  156   156          17.2976278722         470.6923839419    XXXX      XXXX (4)
  157    81          20.2081810504         549.8925623793               B2u (2)
  158    82          20.2081810504         549.8925623793               B2u (2)
  159   121          20.2081810504         549.8925623793               B3u (3)
  160   122          20.2081810504         549.8925623793               B3u (3)
  161   189          20.2081810504         549.8925623793               B1u (5)
  162    83          20.2081810504         549.8925623793               B2u (2)
  163   190          20.2081810504         549.8925623793               B1u (5)
  164   123          20.2081810504         549.8925623793               B3u (3)
  165   272          20.2081810504         549.8925623793                Au (8)
  166   191          20.2081810504         549.8925623793               B1u (5)
  167   273          20.2081810504         549.8925623793                Au (8)
  168   192          20.6536028334         562.0131052911       u       B1u (5)
  169   124          20.6536028334         562.0131052911       u       B3u (3)
  170    84          20.6536028334         562.0131052911       u       B2u (2)
  171   125          20.6536028334         562.0131052911       u       B3u (3)
  172   193          20.6536028334         562.0131052911       u       B1u (5)
  173    85          20.6536028334         562.0131052911       u       B2u (2)
  174   274          20.6536028334         562.0131052911       u        Au (8)
  175    35          23.8625082638         649.3318612507       g        Ag (1)
  176   253          23.8625082638         649.3318612507       g       B2g (7)
  177   254          23.8625082638         649.3318612507       g       B2g (7)
  178    36          23.8625082638         649.3318612507       g        Ag (1)
  179   225          23.8625082638         649.3318612507       g       B3g (6)
  180   157          23.8625082638         649.3318612507       g       B1g (4)
  181    37          23.8625082638         649.3318612507       g        Ag (1)
  182   158          23.8625082638         649.3318612507       g       B1g (4)
  183   226          23.8625082638         649.3318612507       g       B3g (6)
  184    38          26.8075943338         729.4717274488      Hg        Ag (1)
  185   255          26.8075943338         729.4717274488      Hg       B2g (7)
  186   227          26.8075943338         729.4717274488      Hg       B3g (6)
  187    39          26.8075943338         729.4717274488      Hg        Ag (1)
  188   159          26.8075943338         729.4717274488      Hg       B1g (4)
  189    40          34.7885351508         946.6441679132      Ag        Ag (1)
  190   194          35.8756982046         976.2273785881     T1u       B1u (5)
  191   126          35.8756982046         976.2273785881     T1u       B3u (3)
  192    86          35.8756982046         976.2273785881     T1u       B2u (2)
  193    87          59.0669343508        1607.2929968832       u       B2u (2)
  194   127          59.0669343508        1607.2929968832       u       B3u (3)
  195   195          59.0669343508        1607.2929968832       u       B3u (5)
  196   128          59.0669343508        1607.2929968832       u       B1u (3)
  197    88          59.0669343508        1607.2929968832       u       B2u (2)
  198   275          59.0669343508        1607.2929968832       u        Au (8)
  199   196          59.0669343508        1607.2929968832       u       B1u (5)
  200    41          65.9992111243        1795.9298380010      Hg        Ag (1)
  201   228          65.9992111243        1795.9298380010      Hg       B3g (6)
  202    42          65.9992111243        1795.9298380010      Hg        Ag (1)
  203   256          65.9992111243        1795.9298380010      Hg       B2g (7)
  204   160          65.9992111243        1795.9298380010      Hg       B1g (4)
  205    43          85.7518582889        2333.4266931621      Ag        Ag (1)
  206   129          87.4678172352        2380.1203099490     T1u       B3u (3)
  207    89          87.4678172352        2380.1203099490     T1u       B2u (2)
  208   197          87.4678172352        2380.1203099490     T1u       B1u (5)
  209   257         103.0820977379        2805.0064832216       g       B2g (7)
  210   258         103.0820977379        2805.0064832216       g       B2g (7)
  211   229         103.0820977379        2805.0064832216       g       B3g (6)
  212   161         103.0820977379        2805.0064832216       g       B1g (4)
  213   230         103.0820977379        2805.0064832216       g       B3g (6)
  214   162         103.0820977379        2805.0064832216       g       B1g (4)
  215    44         103.0820977379        2805.0064832216       g        Ag (1)
  216    45         103.0820977379        2805.0064832216       g        Ag (1)
  217    46         103.0820977379        2805.0064832216       g        Ag (1)
  218    47         161.7520242799        4401.4963484070      Hg        Ag (1)
  219   231         161.7520242799        4401.4963484070      Hg       B3g (6)
  220    48         161.7520242799        4401.4963484070      Hg        Ag (1)
  221   163         161.7520242799        4401.4963484070      Hg       B1g (4)
  222   259         161.7520242799        4401.4963484070      Hg       B2g (7)
  223   130         176.6599248176        4807.1609456263       u       B3u (3)
  224   198         176.6599248176        4807.1609456263       u       B1u (5)
  225    90         176.6599248176        4807.1609456263       u       B2u (2)
  226   276         176.6599248176        4807.1609456263       u        Au (8)
  227    91         176.6599248176        4807.1609456263       u       B2u (2)
  228   199         176.6599248176        4807.1609456263       u       B1u (5)
  229   131         176.6599248176        4807.1609456263       u       B3u (3)
  230    49         197.0616009741        5362.3187775252      Ag        Ag (1)
  231   132         207.4953550196        5646.2356591566     T1u       B3u (3)
  232    92         207.4953550196        5646.2356591566     T1u       B2u (2)
  233   200         207.4953550196        5646.2356591566     T1u       B1u (5)
  234    93         320.6312954607        8724.8211108186               B2u (2)
  235   201         320.6312954607        8724.8211108187               B1u (5)
  236   277         320.6312954607        8724.8211108187                Au (8)
  237   202         320.6312954607        8724.8211108187               B1u (5)
  238    94         320.6312954607        8724.8211108187               B2u (2)
  239   278         320.6312954607        8724.8211108187                Au (8)
  240   203         320.6312954607        8724.8211108187               B1u (5)
  241   133         320.6312954607        8724.8211108187               B3u (3)
  242   134         320.6312954607        8724.8211108187               B3u (3)
  243   135         320.6312954607        8724.8211108188               B3u (3)
  244    95         320.6312954607        8724.8211108188               B2u (2)
  245   260         374.4280734274       10188.7058617568       g       B2g (7)
  246   232         374.4280734274       10188.7058617568       g        Ag (6)
  247    50         374.4280734274       10188.7058617568       g       B3g (1)
  248    51         374.4280734274       10188.7058617568       g        Ag (1)
  249   164         374.4280734274       10188.7058617568       g       B1g (4)
  250   261         374.4280734274       10188.7058617568       g       B2g (7)
  251   233         374.4280734274       10188.7058617568       g       B3g (6)
  252   165         374.4280734274       10188.7058617568       g       B1g (4)
  253    52         374.4280734274       10188.7058617569       g        Ag (1)
  254   234         393.7242318880       10713.7810277740      Hg       B3g (6)
  255   166         393.7242318880       10713.7810277740      Hg       B1g (4)
  256    53         393.7242318880       10713.7810277741      Hg        Ag (1)
  257   262         393.7242318880       10713.7810277741      Hg       B2g (7)
  258    54         393.7242318880       10713.7810277741      Hg        Ag (1)
  259    55         438.1879444955       11923.7001589262      Ag        Ag (1)
  260   136         489.2948022948       13314.3884608721     T1u       B3u (3)
  261    96         489.2948022948       13314.3884608722     T1u       B2u (2)
  262   204         489.2948022948       13314.3884608722     T1u       B1u (5)
  263    97         531.7445822364       14469.5056981088       u       B2u (2)
  264   205         531.7445822364       14469.5056981088       u       B1u (5)
  265   279         531.7445822365       14469.5056981089       u        Au (8)
  266   137         531.7445822365       14469.5056981089       u       B3u (3)
  267    98         531.7445822365       14469.5056981089       u       B2u (2)
  268   138         531.7445822365       14469.5056981090       u       B3u (3)
  269   206         531.7445822365       14469.5056981090       u       B1u (5)
  270    56         982.5086725640       26735.4201829630      Ag        Ag (1)
  271   263         984.0931262682       26778.5353601892      Hg       B1g (7)
  272   167         984.0931262682       26778.5353601892      Hg       B2g (4)
  273   235         984.0931262682       26778.5353601892      Hg       B3g (6)
  274    57         984.0931262682       26778.5353601892      Hg        Ag (1)
  275    58         984.0931262682       26778.5353601893      Hg        Ag (1)
  276   139        1181.0871584684       32139.0154979012     T1u       B3u (3)
  277    99        1181.0871584684       32139.0154979013     T1u       B2u (2)
  278   207        1181.0871584684       32139.0154979013     T1u       B1u (5)
  279    59        3155.7921031328       85873.4688490390      Ag        Ag (1)


 
  ORBITAL EIGENVALUES ( BETA)  (1H = 27.2113834 eV)

       MO #        E(hartree)               E(eV)           FULLSYM    COMPSYM
       ----   --------------------   --------------------   -------   ---------
    1     1         -15.5858558226        -424.1126984059      Ag        Ag (1)
    2     2          -0.7393228563         -20.1179976980      Ag        Ag (1)
  +++++++++++++++++++++++++++++++++++++++++++++++++++++++++++++++++++++++++++++
    3   168           0.0567058499           1.5430446235     T1u       B1u (5)
    4    60           0.0567058499           1.5430446235     T1u       B2u (2)
    5   100           0.0567058499           1.5430446235     T1u       B3u (3)
    6     3           0.0901375056           2.4527662230      Ag        Ag (1)
    7   101           0.1439584295           3.9173080200     T1u       B3u (3)
    8    61           0.1439584295           3.9173080200     T1u       B2u (2)
    9   169           0.1439584295           3.9173080200     T1u       B1u (5)
   10   208           0.2718191213           7.3965743251      Hg       B3g (6)
   11     4           0.2718191213           7.3965743251      Hg        Ag (1)
   12   236           0.2718191213           7.3965743251      Hg       B2g (7)
   13     5           0.2718191213           7.3965743251      Hg        Ag (1)
   14   140           0.2718191213           7.3965743251      Hg       B1g (4)
   15   102           0.3902505228          10.6192565975     T1u       B3u (3)
   16    62           0.3902505228          10.6192565975     T1u       B2u (2)
   17   170           0.3902505228          10.6192565975     T1u       B1u (5)
   18     6           0.4814540839          13.1010316665      Ag        Ag (1)
   19    63           0.6206892708          16.8898137188       u       B2u (2)
   20   171           0.6206892708          16.8898137188       u       B1u (5)
   21   264           0.6206892708          16.8898137188       u        Au (8)
   22   103           0.6206892708          16.8898137188       u       B3u (3)
   23   172           0.6206892708          16.8898137188       u       B1u (5)
   24    64           0.6206892708          16.8898137188       u       B2u (2)
   25   104           0.6206892708          16.8898137188       u       B3u (3)
   26     7           0.8623252728          23.4650636140      Hg        Ag (1)
   27   237           0.8623252728          23.4650636140      Hg       B2g (7)
   28   209           0.8623252728          23.4650636140      Hg       B3g (6)
   29     8           0.8623252728          23.4650636140      Hg        Ag (1)
   30   141           0.8623252728          23.4650636140      Hg       B1g (4)
   31   173           1.0390153012          28.2730437187     T1u       B1u (5)
   32    65           1.0390153012          28.2730437187     T1u       B2u (2)
   33   105           1.0390153012          28.2730437187     T1u       B3u (3)
   34     9           1.6213182019          44.1183112042      Ag        Ag (1)
   35    10           1.6390834908          44.6017292937       g        Ag (1)
   36    11           1.6390834908          44.6017292937       g        Ag (1)
   37   142           1.6390834908          44.6017292937       g       B1g (4)
   38    12           1.6390834908          44.6017292937       g        Ag (1)
   39   143           1.6390834908          44.6017292937       g       B1g (4)
   40   210           1.6390834908          44.6017292937       g       B3g (6)
   41   238           1.6390834908          44.6017292937       g       B2g (7)
   42   211           1.6390834908          44.6017292937       g       B3g (6)
   43   239           1.6390834908          44.6017292937       g       B2g (7)
   44   265           1.8300851295          49.7991481137       u        Au (8)
   45   174           1.8300851295          49.7991481137       u       B1u (5)
   46    66           1.8300851295          49.7991481137       u       B2u (2)
   47   175           1.8300851295          49.7991481137       u       B1u (5)
[...]
   320.638384823804        320.638384823805        489.297661120512     
   531.747551037553        531.747551037559        1181.08808328556     
  0.271819121298739       0.862325272810652        1.63908349083377     
   1.63908349083377        2.10555481018513        4.37479933170092     
   4.37479933170095        4.84787252070595        7.22087331079164     
   7.22087331079168        7.22087331079169        10.2293727766102     
   10.2293727766103        11.2743241324880        17.3299083271128     
   17.3299083271128        17.3299083271129        23.9164781234945     
   23.9164781234946        26.8640071809775        66.0267364679656     
   103.105206228542        103.105206228543        161.763286350385     
   374.433362747728        374.433362747729        393.728257461557     
   984.094343851753       0.271819121298779       0.862325272810644     
   1.63908349083377        1.63908349083378        2.10555481018514     
   4.37479933170092        4.37479933170094        4.84787252070598     
   7.22087331079164        7.22087331079166        7.22087331079171     
   10.2293727766102        10.2293727766102        11.2743241324881     
   17.3299083271127        17.3299083271128        17.3299083271129     
   23.9164781234944        23.9164781234944        26.8640071809773     
   66.0267364679659        103.105206228542        103.105206228542     
   161.763286350386        374.433362747729        374.433362747730     
   393.728257461559        984.094343851752       0.620689270755019     
   1.83008512950874        3.45830634660249        3.45830634660251     
   4.27586223838370        8.39084514619169        8.39084514619171     
   9.36193575209961        20.2533884140930        20.2533884140930     
   20.7174789810978        59.1014237672330        176.671513497382     
   320.638384823804        320.638384823805        531.747551037556     
 @CHECKOUT-I, Total execution time (CPU/WALL):       50.81/     138.47 seconds.
--executable xvtran finished with status     0 in      138.53 seconds (walltime).
 --invoking executable--
/cvmfs/restricted.computecanada.ca/easybuild/software/2020/avx2/Compiler/intel2020/cfour/2.1/bin/xintprc
 @GETMEM-I,  Allocated   28610 MB of main memory.
  @GMOIAA-I, Processing MO integrals for spin case AA.
  @GMOIAA-I, Generation of integral list completed.
                      TYPE                NUMBER
                      ----               --------
                      PPPP              89153686
                      PPPH               6539130
                      PPHH                122565
                      PHPH                 74787
                      PHHH                  2982
                      HHHH                    33

                     TOTAL              95893183
  @GMOIAA-I, Processing MO integrals for spin case BB.
  @GMOIAA-I, Generation of integral list completed.
                      TYPE                NUMBER
                      ----               --------
                      PPPP              93126424
                      PPPH               2728422
                      PPHH                 21591
                      PHPH                 16401
                      PHHH                   342
                      HHHH                     6

                     TOTAL              95893186
  @GMOIAB-I, Processing MO integrals for spin case AB.
                      TYPE                NUMBER
                      ----               --------
                      PPPP             182198603
                      PPPH1H             6684093
                      PPPH2H             2668974
                      PPHH                101086
                      PHPH1P               16041
                      PHPH2P               76470
                      PHHH1P                 693
                      PHHH2P                1332
                      HHHH                    18

                     TOTAL             191747310

  @FORMT2-I, Second-order MP correlation energies:
  @FORMT2-I, Singles contribution will be calculated.
            ------------------------------------------------
            E(SCF)                  =    -54.400923661031 a.u.
            E2(AA)                  =     -0.036704963320 a.u.
            E2(BB)                  =     -0.000987759618 a.u.
            E2(AB)                  =     -0.129033091529 a.u.
            E2(SINGLE)              =     -0.002276549450 a.u.
            E2(TOT)                 =     -0.166725814467 a.u.
            Total MP2 energy        =    -54.569926024948 a.u.
            ------------------------------------------------
            ----------------------------------------------
                     Projected spin multiplicities: 
            ----------------------------------------------
             <0|S^2|0>                  =    3.7500000000.
             <0|S^2 T2|0>               =    0.0000000000.
             Projected <0|S^2 exp(T)|0> =    3.7500000000.
             Approximate spin mult.     =    4.0000000000.
            ----------------------------------------------
   Largest T2 amplitudes for spin case AA:
   i   j   a   b             i   j   a   b             i   j   a   b
-----------------------------------------------------------------------------
[  5   3 173  67]-0.01379 [  4   3 106  67]-0.01379 [  5   4 173 106]-0.01379
[  5   3 209  11] 0.01245 [  4   3 142  10]-0.01189 [  4   3 103  67] 0.01156
[  5   4 173 103] 0.01156 [  5   3 170  67] 0.01156 [  5   4 170 106] 0.01156
[  5   3 173  64] 0.01156 [  4   3 106  64] 0.01156 [  4   3 145  17]-0.01132
[  5   4 170 103]-0.01119 [  4   3 103  64]-0.01119 [  5   3 170  64]-0.01119
-----------------------------------------------------------------------------
   Norm of T2AA vector (    47778 symmetry allowed elements):  0.0868996592.
-----------------------------------------------------------------------------
   Largest T2 amplitudes for spin case BB:
   i   j   a   b             i   j   a   b             i   j   a   b
-----------------------------------------------------------------------------
[  2   1 114 101] 0.00104 [  2   1  74  61] 0.00104 [  2   1 182 169] 0.00104
[  2   1 182 170] 0.00098 [  2   1  74  62] 0.00098 [  2   1 114 102] 0.00098
[  2   1  80  65] 0.00093 [  2   1 120 105] 0.00093 [  2   1 188 173] 0.00093
[  2   1 120 101]-0.00091 [  2   1  80  61]-0.00091 [  2   1 188 169]-0.00091
[  2   1  74  65]-0.00090 [  2   1 182 173]-0.00090 [  2   1 114 105]-0.00090
-----------------------------------------------------------------------------
   Norm of T2BB vector (     5190 symmetry allowed elements):  0.0055553162.
-----------------------------------------------------------------------------
   Largest T2 amplitudes for spin case AB:
       _       _                 _       _                 _       _
   i   j   a   b             i   j   a   b             i   j   a   b
-----------------------------------------------------------------------------
[  4   2  10 101]-0.01840 [  5   2  11 169] 0.01757 [  5   2  16 169]-0.01666
[  4   2  17 101] 0.01641 [  5   2 237 101] 0.01619 [  3   2 142 101] 0.01619
[  4   2 142  61] 0.01619 [  5   2 209  61] 0.01619 [  4   2 237 169] 0.01619
[  3   2 209 169] 0.01619 [  3   2 145 101]-0.01483 [  5   2 240 101]-0.01483
[  4   2 145  61]-0.01483 [  5   2 212  61]-0.01483 [  4   2 240 169]-0.01483
-----------------------------------------------------------------------------
   Norm of T2AB vector (   101086 symmetry allowed elements):  0.1402939560.
-----------------------------------------------------------------------------
 @CHECKOUT-I, Total execution time (CPU/WALL):       72.77/     105.23 seconds.
--executable xintprc finished with status     0 in      105.73 seconds (walltime).
  calling xvcc 
 --invoking executable--
/cvmfs/restricted.computecanada.ca/easybuild/software/2020/avx2/Compiler/intel2020/cfour/2.1/bin/xvcc
 @GETMEM-I,  Allocated   28610 MB of main memory.
   CCSDT   energy will be calculated.
   The reference state is a ROHF wave function.
   The total correlation energy is -0.169049551418 a.u.
  transposing abij 
   The total correlation energy is -0.182132204313 a.u.
  Convergence information after     1 iterations: 
  Largest element of residual vector : -0.43503807E-02.
  Largest element of DIIS residual   : -0.43503807E-02.
  transposing abij 
   The total correlation energy is -0.185275265761 a.u.
  Convergence information after     2 iterations: 
  Largest element of residual vector :  0.15826256E-02.
  Largest element of DIIS residual   : -0.17332707E-02.
  transposing abij 
   The total correlation energy is -0.186355460033 a.u.
  Convergence information after     3 iterations: 
  Largest element of residual vector :  0.51764874E-03.
  Largest element of DIIS residual   :  0.77284792E-03.
  transposing abij 
   The total correlation energy is -0.186537494551 a.u.
  Convergence information after     4 iterations: 
  Largest element of residual vector :  0.28417606E-03.
  Largest element of DIIS residual   :  0.15579588E-03.
  transposing abij 
   The total correlation energy is -0.186575812922 a.u.
  Convergence information after     5 iterations: 
  Largest element of residual vector :  0.11421649E-03.
  Largest element of DIIS residual   :  0.56253245E-04.
  transposing abij 
   The total correlation energy is -0.186578072622 a.u.
  Convergence information after     6 iterations: 
  Largest element of residual vector :  0.28885909E-04.
  Largest element of DIIS residual   :  0.20944450E-04.
  transposing abij 
   The total correlation energy is -0.186580298757 a.u.
  Convergence information after     7 iterations: 
  Largest element of residual vector :  0.89434609E-05.
  Largest element of DIIS residual   : -0.39260614E-05.
  transposing abij 
   The total correlation energy is -0.186581138960 a.u.
  Convergence information after     8 iterations: 
  Largest element of residual vector :  0.21478832E-05.
  Largest element of DIIS residual   :  0.12655574E-05.
  transposing abij 
   The total correlation energy is -0.186581157847 a.u.
  Convergence information after     9 iterations: 
  Largest element of residual vector :  0.56053729E-06.
  Largest element of DIIS residual   : -0.31794602E-06.
  transposing abij 
   The total correlation energy is -0.186581157204 a.u.
  Convergence information after    10 iterations: 
  Largest element of residual vector :  0.11461387E-06.
  Largest element of DIIS residual   :  0.11737149E-06.
  transposing abij 
   The total correlation energy is -0.186581169059 a.u.
  Convergence information after    11 iterations: 
  Largest element of residual vector :  0.65909526E-07.
  Largest element of DIIS residual   : -0.50862354E-07.
  transposing abij 
   The total correlation energy is -0.186581178609 a.u.
  Convergence information after    12 iterations: 
  Largest element of residual vector :  0.16505994E-07.
  Largest element of DIIS residual   :  0.85402852E-08.
  transposing abij 
   The total correlation energy is -0.186581181404 a.u.
  Convergence information after    13 iterations: 
  Largest element of residual vector :  0.70123086E-08.
  Largest element of DIIS residual   :  0.26261926E-08.
  transposing abij 
   The total correlation energy is -0.186581182712 a.u.
  Convergence information after    14 iterations: 
  Largest element of residual vector :  0.30100962E-08.
  Largest element of DIIS residual   :  0.18792980E-08.
  transposing abij 
   The total correlation energy is -0.186581183190 a.u.
  Convergence information after    15 iterations: 
  Largest element of residual vector :  0.12463803E-08.
  Largest element of DIIS residual   :  0.72502561E-09.
  transposing abij 
   The total correlation energy is -0.186581183402 a.u.
  Convergence information after    16 iterations: 
  Largest element of residual vector :  0.49435613E-09.
  Largest element of DIIS residual   : -0.34061008E-09.
  transposing abij 
   The total correlation energy is -0.186581183510 a.u.
  Convergence information after    17 iterations: 
  Largest element of residual vector :  0.14493474E-09.
  Largest element of DIIS residual   :  0.77010939E-10.
  transposing abij 
   The total correlation energy is -0.186581183523 a.u.
  Convergence information after    18 iterations: 
  Largest element of residual vector :  0.22385657E-09.
  Largest element of DIIS residual   :  0.49590340E-10.
  transposing abij 
   The total correlation energy is -0.186581183537 a.u.
  Convergence information after    19 iterations: 
  Largest element of residual vector :  0.17793152E-09.
  Largest element of DIIS residual   :  0.67716162E-10.
  transposing abij 
   The total correlation energy is -0.186581183556 a.u.
  Convergence information after    20 iterations: 
  Largest element of residual vector :  0.18221988E-10.
  Largest element of DIIS residual   :  0.15416119E-10.
  Amplitude equations converged in    20iterations.
   The total correlation energy is -0.186581183556 a.u.
   The CC iterations have converged.

            ----------------------------------------------
                     Projected spin multiplicities: 
            ----------------------------------------------
             <0|S^2|0>                  =    3.7500000000.
             <0|S^2 (T2+T1**2) |0>      =    0.0000000000.
             <0|S^2 T1|0>               =    0.0000000000.
             Projected <0|S^2 exp(T)|0> =    3.7500000000.
             Approximate spin mult.     =    4.0000000000.
            ----------------------------------------------
   Largest T1 amplitudes for spin case AA:
   i       a                 i       a                 i       a    
-----------------------------------------------------------------------------
[  2       9    ] 0.02158 [  2       6    ]-0.01378 [  2      12    ]-0.01374
[  4     109    ] 0.00366 [  5     176    ] 0.00366 [  3      70    ] 0.00366
[  4     106    ]-0.00333 [  5     173    ]-0.00333 [  3      67    ]-0.00333
[  2      21    ] 0.00267 [  4     102    ] 0.00233 [  5     169    ] 0.00233
[  3      63    ] 0.00233 [  1      12    ] 0.00147 [  1      21    ]-0.00141
-----------------------------------------------------------------------------
   Norm of T1AA vector (      231 symmetry allowed elements):  0.0309639520.
-----------------------------------------------------------------------------
   Largest T2 amplitudes for spin case AA:
   i   j   a   b             i   j   a   b             i   j   a   b
-----------------------------------------------------------------------------
[  5   3 173  67]-0.01670 [  4   3 106  67]-0.01670 [  5   4 173 106]-0.01670
[  4   3 103  67] 0.01439 [  5   3 170  67] 0.01439 [  5   4 173 103] 0.01439
[  5   3 173  64] 0.01439 [  5   4 170 106] 0.01439 [  4   3 106  64] 0.01439
[  5   3 170  64]-0.01400 [  5   4 170 103]-0.01400 [  4   3 103  64]-0.01400
[  5   3 209  11] 0.01314 [  4   3 142  10]-0.01255 [  4   3 145  17]-0.01178
-----------------------------------------------------------------------------
   Norm of T2AA vector (    47778 symmetry allowed elements):  0.0989759749.
-----------------------------------------------------------------------------
   Largest T1 amplitudes for spin case BB:
   i       a                 i       a                 i       a    
-----------------------------------------------------------------------------
[  2       6    ]-0.02622 [  2       3    ] 0.02181 [  2       9    ] 0.00954
[  2      30    ]-0.00092 [  1       9    ]-0.00085 [  2      18    ] 0.00082
[  1      18    ] 0.00081 [  1       6    ] 0.00058 [  1      30    ]-0.00049
[  1       3    ]-0.00025 [  1      40    ] 0.00019 [  2      40    ] 0.00018
[  1      43    ]-0.00007 [  2      43    ]-0.00004 [  1      49    ] 0.00002
-----------------------------------------------------------------------------
   Norm of T1BB vector (      114 symmetry allowed elements):  0.0354681672.
-----------------------------------------------------------------------------
   Largest T2 amplitudes for spin case BB:
   i   j   a   b             i   j   a   b             i   j   a   b
-----------------------------------------------------------------------------
[  2   1 114 101] 0.00096 [  2   1  74  61] 0.00096 [  2   1 182 169] 0.00096
[  2   1 182 170] 0.00091 [  2   1  74  62] 0.00091 [  2   1 114 102] 0.00091
[  2   1  80  65] 0.00090 [  2   1 120 105] 0.00090 [  2   1 188 173] 0.00090
[  2   1 188 176]-0.00087 [  2   1 120 108]-0.00087 [  2   1  80  68]-0.00087
[  2   1 120 101]-0.00085 [  2   1  80  61]-0.00085 [  2   1 188 169]-0.00085
-----------------------------------------------------------------------------
   Norm of T2BB vector (     5190 symmetry allowed elements):  0.0052832376.
-----------------------------------------------------------------------------
   Largest T2 amplitudes for spin case AB:
       _       _                 _       _                 _       _
   i   j   a   b             i   j   a   b             i   j   a   b
-----------------------------------------------------------------------------
[  4   2  10 101]-0.02523 [  5   2  11 169] 0.02409 [  5   2 237 101] 0.02220
[  3   2 142 101] 0.02220 [  4   2 142  61] 0.02220 [  5   2 209  61] 0.02220
[  4   2 237 169] 0.02220 [  3   2 209 169] 0.02220 [  5   2  16 169]-0.02080
[  4   2  17 101] 0.02048 [  3   2  11  61]-0.01961 [  3   2 145 101]-0.01852
[  5   2 240 101]-0.01852 [  5   2 212  61]-0.01852 [  4   2 145  61]-0.01852
-----------------------------------------------------------------------------
   Norm of T2AB vector (   101086 symmetry allowed elements):  0.1765241903.
-----------------------------------------------------------------------------
       Summary of iterative solution of CC equations 
      -----------------------------------------------------------
                       Correlation           Total
       Iteration         Energy              Energy
      -----------------------------------------------------------
            0        -0.169049551418     -54.569973212449  DIIS 
            1        -0.182132204313     -54.583055865344  DIIS 
            2        -0.185275265761     -54.586198926792  DIIS 
            3        -0.186355460033     -54.587279121064  DIIS 
            4        -0.186537494551     -54.587461155582  DIIS 
            5        -0.186575812922     -54.587499473953  DIIS 
            6        -0.186578072622     -54.587501733653  DIIS 
            7        -0.186580298757     -54.587503959788  DIIS 
            8        -0.186581138960     -54.587504799991  DIIS 
            9        -0.186581157847     -54.587504818878  DIIS 
           10        -0.186581157204     -54.587504818236  DIIS 
           11        -0.186581169059     -54.587504830090  DIIS 
           12        -0.186581178609     -54.587504839640  DIIS 
           13        -0.186581181404     -54.587504842435  DIIS 
           14        -0.186581182712     -54.587504843744  DIIS 
           15        -0.186581183190     -54.587504844221  DIIS 
           16        -0.186581183402     -54.587504844433  DIIS 
           17        -0.186581183510     -54.587504844541  DIIS 
           18        -0.186581183523     -54.587504844554  DIIS 
           19        -0.186581183537     -54.587504844568  DIIS 
           20        -0.186581183556     -54.587504844587  DIIS 
      -----------------------------------------------------------
      A miracle has come to pass. The CC iterations have converged.
      The reference energy is       -54.40092366103104 a.u.
      The correlation energy is      -0.18658118355609 a.u.
      The total energy is           -54.58750484458714 a.u.
 @CHECKOUT-I, Total execution time (CPU/WALL):     8584.22/    8708.59 seconds.
--executable xvcc finished with status     0 in     8708.73 seconds (walltime).
  The final electronic energy is       -54.587504844587137 a.u. 
  This computation required                         9227.17 seconds (walltime).
