 --invoking executable--
/home/nike/cfour_v2.00beta/cfour_v2.00beta/bin/xjoda


   *************************************************************************
         <<<     CCCCCC     CCCCCC   |||     CCCCCC     CCCCCC   >>>
       <<<      CCC        CCC       |||    CCC        CCC         >>>
      <<<      CCC        CCC        |||   CCC        CCC            >>>
    <<<        CCC        CCC        |||   CCC        CCC              >>>
      <<<      CCC        CCC        |||   CCC        CCC            >>>
       <<<      CCC        CCC       |||    CCC        CCC         >>>
         <<<     CCCCCC     CCCCCC   |||     CCCCCC     CCCCCC   >>>
   *************************************************************************

     ****************************************************************
     * CFOUR Coupled-Cluster techniques for Computational Chemistry *
     ****************************************************************
 

   Department of Chemistry                Institut fuer Physikalische Chemie
   University of Texas at Austin          Universitaet Mainz
   Austin, TX  78712, USA                 D-55099 Mainz, Germany
 
                       Version 2.00beta
 
                     blg8343.int.ets1.calculquebec.ca                  
                     Sa 7. Mär 23:45:24 EST 2020                      
                     integer*8 version is running
 
********************************************************************************
*                          Input from ZMAT file                                *
********************************************************************************
TITLE                                                                           
N  0.000000 0.000000 0.000000                                                   
C -0.476428 -1.252444 0.000000                                                  
C -0.903103 0.989952 0.000000                                                   
C -2.282876 0.784403 0.000000                                                   
C -1.835282 -1.567988 0.000000                                                  
C -2.760265 -0.525306 0.000000                                                  
H -0.532213 2.008528 0.000000                                                   
H  0.266630 -2.041697 0.000000                                                  
H -2.958369 1.628364 0.000000                                                   
H -2.153556 -2.601071 0.000000                                                  
H -3.818275 -0.726658 0.000000                                                  
                                                                                
*ACES2(CALC=CCSD(T)                                                             
#UNITS=BOHR                                                                     
UNITS=ANGSTROM                                                                  
#GEOM=1.329*10/5.29177210903_1985BredohlButLookAtMahmoud2015                    
COORD=CARTESIAN                                                                 
#COORD=INTERNAL                                                                 
PRINT=4                                                                         
JODA_PRINT=4                                                                    
INPUT_MRCC=OFF                                                                  
#CC_PROG=MRCC                                                                   
#FROZEN_CORE=ON                                                                 
DROPMO=1>6                                                                      
CONTRACTION=GENERAL                                                             
#CONTRACTION=SEGMENTED                                                          
RELATIVISTIC=OFF                                                                
#EXCITE=EOMEE                                                                   
#ESTATE_CONV=5                                                                  
#ESTATE_SYM=2/2/2/2/2/2/2/2                                                     
XFORM_TOL=18                                                                    
SAVE_INTS=ON                                                                    
SCF_EXPORDER=6                                                                  
SCF_EXPSTART=5                                                                  
#SCF_DAMPING=1000                                                               
SCF_EXTRAPOLATION=ON                                                            
SCF_CONV=11                                                                     
SCF_MAXCYC=99999                                                                
CC_CONV=9                                                                       
CC_MAXCYC=999                                                                   
T3_EXTRAPOL=ON                                                                  
REFERENCE=RHF                                                                   
CHARGE=+0                                                                       
MULT=1                                                                          
ABCDTYPE=STANDARD                                                               
#OCCUPATION=3-2-2-0-1-0-0-0/3-1-1-0-1-0-0-0                                     
MEM=12                                                                          
MEM_UNIT=GB                                                                     
BASIS=SPECIAL)                                                                  
                                                                                
N:def2-TZVPP                                                                    
C:def2-TZVPP                                                                    
C:def2-TZVPP                                                                    
C:def2-TZVPP                                                                    
C:def2-TZVPP                                                                    
C:def2-TZVPP                                                                    
H:def2-TZVPP                                                                    
H:def2-TZVPP                                                                    
H:def2-TZVPP                                                                    
H:def2-TZVPP                                                                    
H:def2-TZVPP                                                                    
                                                                                
********************************************************************************
  @GTFLGS-W, Keyword #UNITS not known and is ignored.
  @GTFLGS-W, Keyword #GEOM not known and is ignored.
  @GTFLGS-W, Keyword #COORD not known and is ignored.
  @GTFLGS-W, Keyword #CC_PROG not known and is ignored.
  @GTFLGS-W, Keyword #FROZEN_CORE not known and is ignored.
  @GTFLGS-W, Keyword #CONTRACTION not known and is ignored.
  @GTFLGS-W, Keyword #EXCITE not known and is ignored.
  @GTFLGS-W, Keyword #ESTATE_CONV not known and is ignored.
  @GTFLGS-W, Keyword #ESTATE_SYM not known and is ignored.
  @GTFLGS-W, Keyword #SCF_DAMPING not known and is ignored.
  @GTFLGS-W, Keyword #OCCUPATION not known and is ignored.
    -------------------------------------------------------------------
                    CFOUR Control Parameters 
    -------------------------------------------------------------------
        External           Internal           Value            Units
          Name               Name
    -------------------------------------------------------------------
       ABCDTYPE             IABCDT         STANDARD     [  0]   ***   
       ANHARMONIC           IANHAR         OFF          [  0]   ***   
       ANH_ALGORIT          IANALG         STANDARD     [  0]   ***   
       ANH_DERIVAT          IANDER         SECOND       [  1]   ***   
       ANH_STEPSIZ          ICUBST             50000          x 10-6  
       ANH_SYMMETR          IANHSM         ABELIAN      [  0]   ***   
       AO_LADDERS           IAOLAD         SINGLEPASS   [  1]   ***   
       BASIS                IBASIS         SPECIAL      [  0]   ***   
       BREIT                IBREIT         OFF          [  0]   ***   
       BRUCK_CONV           IBRTOL          10D-  4             ***   
       BRUECKNER            IBRKNR             OFF      [  0]   ***   
       BUFFERSIZE           IBUFFS            600               ***   
       CACHE_RECS           ICHREC             10               ***   
       CALCLEVEL            ICLLVL           CCSD(T)    [ 22]   ***   
       CCORBOPT             ICCORB             OFF      [  0] x 0.01  
       CC_CONV              ICCCNV          10D-  9             ***   
       CC_EXPORDER          ICCEOR              5               ***   
       CC_EXTRAPOL          ICCEXT             DIIS     [  1]   ***   
       CC_MAXCYC            ICCCYC            999              cycles 
       CC_PROGRAM           ICCPRO         VCC          [  0]   ***   
       CHARGE               ICHRGE              0               ***   
       CHOLESKY             ICHOLE         OFF          [  0]   ***   
       CIS_CONV             ICISTL              5               ***   
       COMM_SIZE            IPSIZE            ***               ***   
       CONSTANT             ICONST         OLD          [  1]   ***   
       CONTINUUM            ICONTU         NONE         [  0]   ***   
       CONTRACTION          ICNTYP          GENERAL     [  1]   ***   
       COORDINATES          ICOORD         CARTESIAN    [  1]   ***   
       CPHF_CONVER          ICPHFT          10D- 16             ***   
       CPHF_MAXCYC          ICPHFC             64              cycles 
       CUBIC                ICUBIC         OFF          [  0]   ***   
       CURVILINEAR          ICURVY            OFF       [  0]   ***   
       DBOC                 IDBOC          OFF          [  0]   ***   
       DCT                  IDCT           OFF          [  0]   ***   
       DERIV_LEV            IDRLVL            ZERO      [  0]   ***   
       DIAG_MRCC            IEOMST          10D-  0             ***   
       DIFF_TYPE            IDIFTY         RELAXED      [  0]   ***   
       DIRECT               IDIRCT         OFF          [  0]   ***   
       DROPMO               IDRPMO   1,  2,  3,  4,  5,  6,
       ECP                  IECP           OFF          [  0]   ***   
       EIGENVECTOR          IVEC                1               ***   
       EL_ANHARM            IELANH         OFF          [  0]   ***   
       EOMFOLLOW            IEOMSR         ENERGY       [  0]   ***   
       EOM_MRCC             IMRCCE         NEW          [  1]   ***   
       EOM_NONIT            EOMNON         OFF          [  0]   ***   
       EOM_NSING            IEOMSI          10D-  0             ***   
       EOM_NSTATES          IMRCCD         DAVIDSON     [  0]   ***   
       EOM_NTRIP            IEOMTR          10D-  0             ***   
       EOM_ORDER            IEXORD         ENERGY       [  0]   ***   
       ESTATE_CONV          IEXTOL          10D-  5             ***   
       ESTATE_DIAG          IEXDIG         ITERATIVE    [  0]   ***   
       ESTATE_LOCK          IESLOC         ON           [  1]   ***   
       ESTATE_MAXC          IEXMXC             20               ***   
       ESTATE_PROP          IEXPRP         OFF          [  0]   ***   
       EVAL_HESS            IRECAL              0            # of cyc.
       EXCITATION           IEXCIT              0               ***   
       EXCITE               IEXCIT         NONE         [  0]   ***   
       FCGRADNEW            IFCGNW         OFF          [  0]   ***   
       FC_FIELD             IFINFC              0             x 10-6  
       FD_CALTYPE           IFDCAL         GRADONLY     [  0]   ***   
       FD_PROJECT           IFDPRJ         OFF          [  1]   ***   
       FD_STEPSIZE          IDISFD              0            10-4 bohr
       FD_USEGROUP          IFDGRP         FULL         [  0]   ***   
       FILE_RECSIZ          IFLREC              4096           words  
       FINITE_PERT          IFIPER              0             x 10-6  
       FIXGEOM              IFIXGM         OFF          [  0]   ***   
       FOCK                 IFOCK          AO           [  1]   ***   
       FREQ_ALGORI          IVIALG         STANDARD     [  0]   ***   
       FROZEN_CORE          IFROCO         OFF          [  0]   ***   
       FROZEN_VIRT          IFROVI         OFF          [  0]   ***   
       GAMMA_ABCD           IGABCD         STORE        [  0]   ***   
       GAMMA_ABCI           IGABCI         STORE        [  0]   ***   
       GENBAS_1             IGNBS1              0               ***   
       GENBAS_2             IGNBS2              0               ***   
       GENBAS_3             IGNBS3              0               ***   
       GENBAS_4             IGNBS4              0               ***   
       GEO_CONV             ICONTL              5              H/bohr 
       GEO_MAXCYC           IOPTCY             50               ***   
       GEO_MAXSTEP          IMXSTP            300            millibohr
       GEO_METHOD           INR            SINGLE_POINT [  5]   ***   
       GIAO                 IGIAO          OFF          [  1]   ***   
       GIMIC                IGIMIC         OFF          [  0]   ***   
       GRID                 IGRID          OFF          [  0]   ***   
       GRID_ALGO            IGALGO         SERIAL       [  0]   ***   
       GUESS                IGUESS            MOREAD    [  0]   ***   
       HBAR                 IHBAR              OFF      [  0]   ***   
       HESS_TYPE            IHESTP         SCF          [  0]   ***   
       HF2_FILE             IHF2Fl         USE          [  1]   ***   
       HFSTABILITY          ISTABL         OFF          [  0]   ***   
       INCORE               INCORE             OFF      [  0]   ***   
       INPUT_MRCC           IMRCC          OFF          [  0]   ***   
       INTEGRALS            INTTYP             VMOL     [  1]   ***   
       JODA_PRINT           IJPRNT              4               ***   
       LINDEP_TOL           ILINDP              8               ***   
       LINEQ_CONV           IZTACN          10D-  7           cycles  
       LINEQ_EXPOR          ILMAXD              5               ***   
       LINEQ_MAXCY          ILMAXC             50               ***   
       LINEQ_TYPE           ILTYPE         DIIS         [  1]   ***   
       LOCK_ORBOCC          ILOCOC             OFF      [  0]   ***   
       MEMORY_SIZE          IMEMSZ         *********           words  
       MEM_UNIT             IMEMU          GB           [  3]   ***   
       MRCC                 IMRCCC         OFF          [  0]   ***   
       MULTIPLICTY          IMULTP              1               ***   
       NEGEVAL              IDIE             ABORT      [  0]   ***   
       NEWNORM              INEWNO         OFF          [  0]   ***   
       NON-HF               INONHF             OFF      [  0]   ***   
       NTOP_TAMP            ITOPT2             15               ***   
       NUC_MODEL            INUCMO         POINT        [  0]   ***   
       OCCUPATION           IOCCU   ESTIMATED BY SCF 
       OPEN-SHELL           IOPEN          SPIN-ORBITAL [  0]   ***   
       ORBITALS             IORBTP           STANDARD   [  0]   ***   
       PARALLEL             IPARAL         ON           [  1]   ***   
       PARA_INT             IPINTS         ON           [  1]   ***   
       PARA_PRINT           IPPRIN              0               ***   
       PERT_ORB             IPTORB         STANDARD     [  0]   ***   
       POINTS               IGRDFD              0               ***   
       PRINT                IPRNT               4               ***   
       PROPS                IPROPS             OFF      [  0]   ***   
       PROP_INTEGR          IINTYP         INTERNAL     [  0]   ***   
       PSI                  IPSI           OFF          [  0]   ***   
       QUARTIC              IQUART         OFF          [  0]   ***   
       RAMAN_INT            IRAMIN         OFF          [  0]   ***   
       RAMAN_ORB            IRAMRE         UNRELAXED    [  0]   ***   
       RDO                  IRDOFM             OFF      [  0]   ***   
       REFERENCE            IREFNC             RHF      [  0]   ***   
       RELATIVIST           IRELAT         OFF          [  0]   ***   
       RELAX_DENS           IRDENS             OFF      [  0]   ***   
       RESET_FLAGS          IRESET             OFF      [  0]   ***   
       RESTART_CC           ICCRES         OFF          [  0]   ***   
       ROT_EVEC             ROTVEC              0               ***   
       SAVE_INTS            ISVINT              ON      [  1]   ***   
       SCALE_ON             ISTCRT              0               ***   
       SCF_CONV             ISCFCV          10D- 11             ***   
       SCF_DAMPING          IDAMP               0             x 10-3  
       SCF_EXPORDE          IRPPOR              6               ***   
       SCF_EXPSTAR          IRPPLS              5               ***   
       SCF_EXTRAPO          IRPP                ON      [  1]   ***   
       SCF_MAXCYC           ISCFCY            ***              cycles 
       SCF_NOSTOP           ISCFST         OFF          [  0]   ***   
       SCF_PRINT            ISCFPR              0               ***   
       SD_FIELD             IFINSD              0             x 10-6  
       SEQUENCE             ISEQUE         OFF          [  0]   ***   
       SOPERT               IPERSO         OFF          [  0]   ***   
       SPHERICAL            IDFGHI             ON       [  1]   ***   
       SPINORBIT            ISOCAL         OFF          [  0]   ***   
       SPINROTATIO          ISRCON         OFF          [  0]   ***   
       SPIN_FLIP            ISPFLP         OFF          [  0]   ***   
       SPIN_ORBIT           ISPORB         OFF          [  0]   ***   
       SPIN_SCAL            ISCSMP         OFF          [  0]   ***   
       SUBGROUP             ISUBGP         DEFAULT      [  0]   ***   
       SUBGRPAXIS           ISBXYZ         X            [  0]   ***   
       SYMMETRY             ISYM             ON         [  0]   ***   
       SYM_CHECK            ISYMCK         OVERRIDE     [  1]   ***   
       T3_EXTRAPOL          IT3EXT         ON           [  1]   ***   
       TAMP_SUM             IEVERY              5               ***   
       TESTSUITE            ITESTS         OFF          [  0]   ***   
       THERMOCH             ITHERM         OFF          [  0]   ***   
       TOL_CHOLESK          ITOLCH          10D-  4             ***   
       TRANGRAD             IRESRM         OFF          [  0]   ***   
       TRANS_INV            ITRAIN         USE          [  0]   ***   
       TREAT_PERT           ITREAT         SIMULTANEOUS [  0]   ***   
       UIJ_THRESHO          IUIJTH              1               ***   
       UNITS                IUNITS         ANGSTROM     [  0]   ***   
       UNOS                 IUNOS          OFF          [  0]   ***   
       UPDATE_HESS          IHUPDT         ON           [  1]   ***   
       VIBPHASE             ISETPH         STANDARD     [  0]   ***   
       VIBRATION            IVIB              NO        [  0]   ***   
       VIB_ALGORIT          IGEALG         STANDARD     [  0]   ***   
       VNATORB              IVNORB         OFF          [  0]   ***   
       VTRAN                IVTRAN         FULL/PARTIAL [  0]   ***   
       XFIELD               IXEFLD              0             x 10-6  
       XFORM_TOL            IXFTOL          10D- 18             ***   
       YFIELD               IYEFLD              0             x 10-6  
       ZFIELD               IZEFLD              0             x 10-6  
    -------------------------------------------------------------------
  @GETXYZ-I,    11 atoms read from ZMAT.
  1  N          7    14.00307
  2  C          6    12.00000
  3  C          6    12.00000
  4  C          6    12.00000
  5  C          6    12.00000
  6  C          6    12.00000
  7  H          1     1.00783
  8  H          1     1.00783
  9  H          1     1.00783
 10  H          1     1.00783
 11  H          1     1.00783
  1  N          7    14.00307
  2  C          6    12.00000
  3  C          6    12.00000
  4  C          6    12.00000
  5  C          6    12.00000
  6  C          6    12.00000
  7  H          1     1.00783
  8  H          1     1.00783
  9  H          1     1.00783
 10  H          1     1.00783
 11  H          1     1.00783
   14.0030740020
   12.0000000000
   12.0000000000
   12.0000000000
   12.0000000000
   12.0000000000
    1.0078250350
    1.0078250350
    1.0078250350
    1.0078250350
    1.0078250350
 After translation to center of mass coordinates 
        2.590727395895    0.492565296630    0.000000000000
        1.690408769106   -1.874211345821    0.000000000000
        0.884109705900    2.363303845218    0.000000000000
       -1.723283924701    1.974872448622    0.000000000000
       -0.877453672409   -2.470503211058    0.000000000000
       -2.625418578676   -0.500119383035    0.000000000000
        1.584990375151    4.288133925734    0.000000000000
        3.094585178101   -3.365683671437    0.000000000000
       -2.999780961326    3.569727932731    0.000000000000
       -1.478904491048   -4.422747554209    0.000000000000
       -4.624768134807   -0.880619597425    0.000000000000
  Inertia tensor (amu*bohr**2)
  298.90187   -2.11158    0.00000
   -2.11158  310.25830    0.00000
    0.00000    0.00000  609.16017
    Inertia tensor:
      298.901870065362   -2.111579466259    0.000000000000
       -2.111579466259  310.258299425638    0.000000000000
        0.000000000000    0.000000000000  609.160169490999
    Principal axis orientation for molecular system: 
        2.637008061222   -0.026028759820    0.000000000000
        1.331820158075    2.143922816246    0.000000000000
        1.288620180495   -2.169403850672    0.000000000000
       -1.346351248525   -2.248814574182    0.000000000000
       -1.301051643503    2.276087802351    0.000000000000
       -2.672488671426    0.027320535221    0.000000000000
        2.319264137636   -3.939708227042    0.000000000000
        2.449704638342    3.860470332172    0.000000000000
       -2.320267465193   -4.044502715986    0.000000000000
       -2.238691378781    4.090979752147    0.000000000000
       -4.707620300005    0.047773288299    0.000000000000
    Diagonalized inertia tensor:
      298.521958814483    0.000000000000    0.000000000000
        0.000000000000  310.638210676517    0.000000000000
        0.000000000000    0.000000000000  609.160169490999
    Eigenvectors of inertia tensor: 
        0.984197383891    0.177074869878    0.000000000000
        0.177074869878   -0.984197383891    0.000000000000
        0.000000000000    0.000000000000    1.000000000000
 factor:   60.1997200000000     
   Rotational constants (in cm-1): 
          0.0988241238             0.1937936736             0.2016592690
   Rotational constants (in MHz): 
       2962.6731132438          5809.7889885458          6045.5936406727
  @SYMMETRY-I, Handedness of inertial frame:-1.00000
  @SYMMETRY-I, Sense of inertial frame y-axis will be changed.
  @SYMMETRY-I, The symmetry group is 1-fold degenerate.
  @SYMMETRY-I, The molecule belongs to an Abelian group.
   Principal axis orientation for molecule:
        2.637008061222    0.026028759820    0.000000000000
        1.331820158075   -2.143922816246    0.000000000000
        1.288620180495    2.169403850672    0.000000000000
       -1.346351248525    2.248814574182    0.000000000000
       -1.301051643503   -2.276087802351    0.000000000000
       -2.672488671426   -0.027320535221    0.000000000000
        2.319264137636    3.939708227042    0.000000000000
        2.449704638342   -3.860470332172    0.000000000000
       -2.320267465193    4.044502715986    0.000000000000
       -2.238691378781   -4.090979752147    0.000000000000
       -4.707620300005   -0.047773288299    0.000000000000
   Reflection in plane  3 is a valid symmetry operation.
  Symmetry bits:    4   0   0
********************************************************************************
   The full molecular point group is C s .
   The largest Abelian subgroup of the full molecular point group is C s .
   The computational point group is C s .
********************************************************************************
 ----------------------------------------------------------------
 Z-matrix   Atomic            Coordinates (in bohr)
  Symbol    Number           X              Y              Z
 ----------------------------------------------------------------
     N         7         2.63700806     0.02602876     0.00000000
     C         6         1.33182016    -2.14392282     0.00000000
     C         6         1.28862018     2.16940385     0.00000000
     C         6        -1.34635125     2.24881457     0.00000000
     C         6        -1.30105164    -2.27608780     0.00000000
     C         6        -2.67248867    -0.02732054     0.00000000
     H         1         2.31926414     3.93970823     0.00000000
     H         1         2.44970464    -3.86047033     0.00000000
     H         1        -2.32026747     4.04450272     0.00000000
     H         1        -2.23869138    -4.09097975     0.00000000
     H         1        -4.70762030    -0.04777329     0.00000000
 ----------------------------------------------------------------
   Interatomic distance matrix (Angstroms) 
 
                 N             C             C             C             C    
                [ 1]        [ 2]        [ 3]        [ 4]        [ 5]
  N    [ 1]     0.00000
  C    [ 2]     1.34000     0.00000
  C    [ 3]     1.34000     2.28263     0.00000
  C    [ 4]     2.41388     2.72250     1.39500     0.00000
  C    [ 5]     2.41389     1.39501     2.72250     2.39459     0.00000
  C    [ 6]     2.80981     2.39680     2.39688     1.39400     1.39384
  H    [ 7]     2.07784     3.26145     1.08400     2.13619     3.80650
  H    [ 8]     2.05903     1.08400     3.24949     3.80616     2.15463
  H    [ 9]     3.37691     3.80251     2.15214     1.08100     3.38792
  H    [10]     3.37689     2.15210     3.80251     3.38794     1.08100
  H    [11]     3.88681     3.38296     3.38304     2.15424     2.15409
 
                 C             H             H             H             H    
                [ 6]        [ 7]        [ 8]        [ 9]        [10]
  C    [ 6]     0.00000
  H    [ 7]     3.37410     0.00000
  H    [ 8]     3.38549     4.12825     0.00000
  H    [ 9]     2.16276     2.45576     4.88569     0.00000
  H    [10]     2.16261     4.88643     2.48399     4.30533     0.00000
  H    [11]     1.07700     4.27545     4.29136     2.50710     2.50693
 
                 H    
                [11]
  H    [11]     0.00000
  Inertia tensor (amu*bohr**2)
  298.52196    0.00000    0.00000
    0.00000  310.63821    0.00000
    0.00000    0.00000  609.16017
   Rotational constants (in cm-1): 
          0.2016592690             0.1937936736             0.0988241238
   Rotational constants (in MHz): 
       6045.5936406727          5809.7889885458          2962.6731132438
  @GTFLGS-W, Keyword #UNITS not known and is ignored.
  @GTFLGS-W, Keyword #GEOM not known and is ignored.
  @GTFLGS-W, Keyword #COORD not known and is ignored.
  @GTFLGS-W, Keyword #CC_PROG not known and is ignored.
  @GTFLGS-W, Keyword #FROZEN_CORE not known and is ignored.
  @GTFLGS-W, Keyword #CONTRACTION not known and is ignored.
  @GTFLGS-W, Keyword #EXCITE not known and is ignored.
  @GTFLGS-W, Keyword #ESTATE_CONV not known and is ignored.
  @GTFLGS-W, Keyword #ESTATE_SYM not known and is ignored.
  @GTFLGS-W, Keyword #SCF_DAMPING not known and is ignored.
  @GTFLGS-W, Keyword #OCCUPATION not known and is ignored.
  There are  256 basis functions.
 @GEOPT-W, Archive file not created for single-point calculation.
  @CHECKOUT-I, Total execution time (CPU/WALL):        0.93/       1.93 seconds.
--executable xjoda finished with status     0 in        5.97 seconds (walltime).
 --invoking executable--
/home/nike/cfour_v2.00beta/cfour_v2.00beta/bin/xvmol
 Serial version of molecule started
********************************************************************************
                    Input from MOL file
********************************************************************************
INTGRL        1    0    1    0    0    0    0    0    0                         
         *** CFOUR Program System (Release V0.1) ***                            
TITLE                                                                           
   11    1 Z          0.10E-08              0    0                              
   9999.00      3.00                                                            
          7.00000000    1    4    1    1    1    1                              
N #1   2.637008061221574   0.026028759820415   0.000000000000000                
   11    5                                                                      
   19730.8006470000       2.188798499100000E-004  0.000000000000000E+000        
  0.000000000000000E+000  0.000000000000000E+000  0.000000000000000E+000        
   2957.89587450000       1.696070880300000E-003  0.000000000000000E+000        
  0.000000000000000E+000  0.000000000000000E+000  0.000000000000000E+000        
   673.221335950000       8.795460353799999E-003  0.000000000000000E+000        
  0.000000000000000E+000  0.000000000000000E+000  0.000000000000000E+000        
   190.682494940000       3.535938260500000E-002  0.000000000000000E+000        
  0.000000000000000E+000  0.000000000000000E+000  0.000000000000000E+000        
   62.2954418980000       0.110957892170000       0.000000000000000E+000        
  0.000000000000000E+000  0.000000000000000E+000  0.000000000000000E+000        
   22.6541611820000       0.249829725520000       0.000000000000000E+000        
  0.000000000000000E+000  0.000000000000000E+000  0.000000000000000E+000        
   8.97914774280000       0.000000000000000E+000  0.406238961480000             
  0.000000000000000E+000  0.000000000000000E+000  0.000000000000000E+000        
   3.68630023700000       0.000000000000000E+000  0.243382171760000             
  0.000000000000000E+000  0.000000000000000E+000  0.000000000000000E+000        
  0.846600768050000       0.000000000000000E+000  0.000000000000000E+000        
   1.00000000000000       0.000000000000000E+000  0.000000000000000E+000        
  0.336471337710000       0.000000000000000E+000  0.000000000000000E+000        
  0.000000000000000E+000   1.00000000000000       0.000000000000000E+000        
  0.136476536750000       0.000000000000000E+000  0.000000000000000E+000        
  0.000000000000000E+000  0.000000000000000E+000   1.00000000000000             
    6    3                                                                      
   49.2003805100000       5.555241675100000E-003  0.000000000000000E+000        
  0.000000000000000E+000                                                        
   11.3467905370000       3.805237972300000E-002  0.000000000000000E+000        
  0.000000000000000E+000                                                        
   3.42739724110000       0.149536710290000       0.000000000000000E+000        
  0.000000000000000E+000                                                        
   1.17855251340000       0.349493052300000       0.000000000000000E+000        
  0.000000000000000E+000                                                        
  0.416422049720000       0.000000000000000E+000  0.458431536970000             
  0.000000000000000E+000                                                        
  0.142608260110000       0.000000000000000E+000  0.000000000000000E+000        
  0.244287716720000                                                             
    2    2                                                                      
   1.65400000000000        1.00000000000000       0.000000000000000E+000        
  0.469000000000000       0.000000000000000E+000   1.00000000000000             
    1    1                                                                      
   1.09300000000000        1.00000000000000                                     
          6.00000000    1    4    1    1    1    1                              
C #2   1.331820158074585  -2.143922816246059   0.000000000000000                
   11    5                                                                      
   13575.3496820000       2.224581435200000E-004  0.000000000000000E+000        
  0.000000000000000E+000  0.000000000000000E+000  0.000000000000000E+000        
   2035.23336800000       1.723273825200000E-003  0.000000000000000E+000        
  0.000000000000000E+000  0.000000000000000E+000  0.000000000000000E+000        
   463.225623590000       8.925571531400001E-003  0.000000000000000E+000        
  0.000000000000000E+000  0.000000000000000E+000  0.000000000000000E+000        
   131.200195980000       3.572798450200000E-002  0.000000000000000E+000        
  0.000000000000000E+000  0.000000000000000E+000  0.000000000000000E+000        
   42.8530158910000       0.110762599310000       0.000000000000000E+000        
  0.000000000000000E+000  0.000000000000000E+000  0.000000000000000E+000        
   15.5841857660000       0.242956276260000       0.000000000000000E+000        
  0.000000000000000E+000  0.000000000000000E+000  0.000000000000000E+000        
   6.20671385080000       0.000000000000000E+000  0.414402634480000             
  0.000000000000000E+000  0.000000000000000E+000  0.000000000000000E+000        
   2.57648965270000       0.000000000000000E+000  0.237449686550000             
  0.000000000000000E+000  0.000000000000000E+000  0.000000000000000E+000        
  0.576963394190000       0.000000000000000E+000  0.000000000000000E+000        
   1.00000000000000       0.000000000000000E+000  0.000000000000000E+000        
  0.229728313580000       0.000000000000000E+000  0.000000000000000E+000        
  0.000000000000000E+000   1.00000000000000       0.000000000000000E+000        
  9.516444002799999E-002  0.000000000000000E+000  0.000000000000000E+000        
  0.000000000000000E+000  0.000000000000000E+000   1.00000000000000             
    6    3                                                                      
   34.6972322440000       5.333365780500000E-003  0.000000000000000E+000        
  0.000000000000000E+000                                                        
   7.95826228260000       3.586410909200000E-002  0.000000000000000E+000        
  0.000000000000000E+000                                                        
   2.37808268830000       0.142158733290000       0.000000000000000E+000        
  0.000000000000000E+000                                                        
  0.814332081830000       0.342704718450000       0.000000000000000E+000        
  0.000000000000000E+000                                                        
  0.288875472530000       0.000000000000000E+000  0.464458224330000             
  0.000000000000000E+000                                                        
  0.100568236710000       0.000000000000000E+000  0.000000000000000E+000        
  0.249557898740000                                                             
    2    2                                                                      
   1.09700000000000        1.00000000000000       0.000000000000000E+000        
  0.318000000000000       0.000000000000000E+000   1.00000000000000             
    1    1                                                                      
  0.761000000000000        1.00000000000000                                     
          6.00000000    1    4    1    1    1    1                              
C #3   1.288620180495039   2.169403850672487   0.000000000000000                
   11    5                                                                      
   13575.3496820000       2.224581435200000E-004  0.000000000000000E+000        
  0.000000000000000E+000  0.000000000000000E+000  0.000000000000000E+000        
   2035.23336800000       1.723273825200000E-003  0.000000000000000E+000        
  0.000000000000000E+000  0.000000000000000E+000  0.000000000000000E+000        
   463.225623590000       8.925571531400001E-003  0.000000000000000E+000        
  0.000000000000000E+000  0.000000000000000E+000  0.000000000000000E+000        
   131.200195980000       3.572798450200000E-002  0.000000000000000E+000        
  0.000000000000000E+000  0.000000000000000E+000  0.000000000000000E+000        
   42.8530158910000       0.110762599310000       0.000000000000000E+000        
  0.000000000000000E+000  0.000000000000000E+000  0.000000000000000E+000        
   15.5841857660000       0.242956276260000       0.000000000000000E+000        
  0.000000000000000E+000  0.000000000000000E+000  0.000000000000000E+000        
   6.20671385080000       0.000000000000000E+000  0.414402634480000             
  0.000000000000000E+000  0.000000000000000E+000  0.000000000000000E+000        
   2.57648965270000       0.000000000000000E+000  0.237449686550000             
  0.000000000000000E+000  0.000000000000000E+000  0.000000000000000E+000        
  0.576963394190000       0.000000000000000E+000  0.000000000000000E+000        
   1.00000000000000       0.000000000000000E+000  0.000000000000000E+000        
  0.229728313580000       0.000000000000000E+000  0.000000000000000E+000        
  0.000000000000000E+000   1.00000000000000       0.000000000000000E+000        
  9.516444002799999E-002  0.000000000000000E+000  0.000000000000000E+000        
  0.000000000000000E+000  0.000000000000000E+000   1.00000000000000             
    6    3                                                                      
   34.6972322440000       5.333365780500000E-003  0.000000000000000E+000        
  0.000000000000000E+000                                                        
   7.95826228260000       3.586410909200000E-002  0.000000000000000E+000        
  0.000000000000000E+000                                                        
   2.37808268830000       0.142158733290000       0.000000000000000E+000        
  0.000000000000000E+000                                                        
  0.814332081830000       0.342704718450000       0.000000000000000E+000        
  0.000000000000000E+000                                                        
  0.288875472530000       0.000000000000000E+000  0.464458224330000             
  0.000000000000000E+000                                                        
  0.100568236710000       0.000000000000000E+000  0.000000000000000E+000        
  0.249557898740000                                                             
    2    2                                                                      
   1.09700000000000        1.00000000000000       0.000000000000000E+000        
  0.318000000000000       0.000000000000000E+000   1.00000000000000             
    1    1                                                                      
  0.761000000000000        1.00000000000000                                     
          6.00000000    1    4    1    1    1    1                              
C #4  -1.346351248525283   2.248814574181601   0.000000000000000                
   11    5                                                                      
   13575.3496820000       2.224581435200000E-004  0.000000000000000E+000        
  0.000000000000000E+000  0.000000000000000E+000  0.000000000000000E+000        
   2035.23336800000       1.723273825200000E-003  0.000000000000000E+000        
  0.000000000000000E+000  0.000000000000000E+000  0.000000000000000E+000        
   463.225623590000       8.925571531400001E-003  0.000000000000000E+000        
  0.000000000000000E+000  0.000000000000000E+000  0.000000000000000E+000        
   131.200195980000       3.572798450200000E-002  0.000000000000000E+000        
  0.000000000000000E+000  0.000000000000000E+000  0.000000000000000E+000        
   42.8530158910000       0.110762599310000       0.000000000000000E+000        
  0.000000000000000E+000  0.000000000000000E+000  0.000000000000000E+000        
   15.5841857660000       0.242956276260000       0.000000000000000E+000        
  0.000000000000000E+000  0.000000000000000E+000  0.000000000000000E+000        
   6.20671385080000       0.000000000000000E+000  0.414402634480000             
  0.000000000000000E+000  0.000000000000000E+000  0.000000000000000E+000        
   2.57648965270000       0.000000000000000E+000  0.237449686550000             
  0.000000000000000E+000  0.000000000000000E+000  0.000000000000000E+000        
  0.576963394190000       0.000000000000000E+000  0.000000000000000E+000        
   1.00000000000000       0.000000000000000E+000  0.000000000000000E+000        
  0.229728313580000       0.000000000000000E+000  0.000000000000000E+000        
  0.000000000000000E+000   1.00000000000000       0.000000000000000E+000        
  9.516444002799999E-002  0.000000000000000E+000  0.000000000000000E+000        
  0.000000000000000E+000  0.000000000000000E+000   1.00000000000000             
    6    3                                                                      
   34.6972322440000       5.333365780500000E-003  0.000000000000000E+000        
  0.000000000000000E+000                                                        
   7.95826228260000       3.586410909200000E-002  0.000000000000000E+000        
  0.000000000000000E+000                                                        
   2.37808268830000       0.142158733290000       0.000000000000000E+000        
  0.000000000000000E+000                                                        
  0.814332081830000       0.342704718450000       0.000000000000000E+000        
  0.000000000000000E+000                                                        
  0.288875472530000       0.000000000000000E+000  0.464458224330000             
  0.000000000000000E+000                                                        
  0.100568236710000       0.000000000000000E+000  0.000000000000000E+000        
  0.249557898740000                                                             
    2    2                                                                      
   1.09700000000000        1.00000000000000       0.000000000000000E+000        
  0.318000000000000       0.000000000000000E+000   1.00000000000000             
    1    1                                                                      
  0.761000000000000        1.00000000000000                                     
          6.00000000    1    4    1    1    1    1                              
C #5  -1.301051643502809  -2.276087802351095   0.000000000000000                
   11    5                                                                      
   13575.3496820000       2.224581435200000E-004  0.000000000000000E+000        
  0.000000000000000E+000  0.000000000000000E+000  0.000000000000000E+000        
   2035.23336800000       1.723273825200000E-003  0.000000000000000E+000        
  0.000000000000000E+000  0.000000000000000E+000  0.000000000000000E+000        
   463.225623590000       8.925571531400001E-003  0.000000000000000E+000        
  0.000000000000000E+000  0.000000000000000E+000  0.000000000000000E+000        
   131.200195980000       3.572798450200000E-002  0.000000000000000E+000        
  0.000000000000000E+000  0.000000000000000E+000  0.000000000000000E+000        
   42.8530158910000       0.110762599310000       0.000000000000000E+000        
  0.000000000000000E+000  0.000000000000000E+000  0.000000000000000E+000        
   15.5841857660000       0.242956276260000       0.000000000000000E+000        
  0.000000000000000E+000  0.000000000000000E+000  0.000000000000000E+000        
   6.20671385080000       0.000000000000000E+000  0.414402634480000             
  0.000000000000000E+000  0.000000000000000E+000  0.000000000000000E+000        
   2.57648965270000       0.000000000000000E+000  0.237449686550000             
  0.000000000000000E+000  0.000000000000000E+000  0.000000000000000E+000        
  0.576963394190000       0.000000000000000E+000  0.000000000000000E+000        
   1.00000000000000       0.000000000000000E+000  0.000000000000000E+000        
  0.229728313580000       0.000000000000000E+000  0.000000000000000E+000        
  0.000000000000000E+000   1.00000000000000       0.000000000000000E+000        
  9.516444002799999E-002  0.000000000000000E+000  0.000000000000000E+000        
  0.000000000000000E+000  0.000000000000000E+000   1.00000000000000             
    6    3                                                                      
   34.6972322440000       5.333365780500000E-003  0.000000000000000E+000        
  0.000000000000000E+000                                                        
   7.95826228260000       3.586410909200000E-002  0.000000000000000E+000        
  0.000000000000000E+000                                                        
   2.37808268830000       0.142158733290000       0.000000000000000E+000        
  0.000000000000000E+000                                                        
  0.814332081830000       0.342704718450000       0.000000000000000E+000        
  0.000000000000000E+000                                                        
  0.288875472530000       0.000000000000000E+000  0.464458224330000             
  0.000000000000000E+000                                                        
  0.100568236710000       0.000000000000000E+000  0.000000000000000E+000        
  0.249557898740000                                                             
    2    2                                                                      
   1.09700000000000        1.00000000000000       0.000000000000000E+000        
  0.318000000000000       0.000000000000000E+000   1.00000000000000             
    1    1                                                                      
  0.761000000000000        1.00000000000000                                     
          6.00000000    1    4    1    1    1    1                              
C #6  -2.672488671425697  -0.027320535220980   0.000000000000000                
   11    5                                                                      
   13575.3496820000       2.224581435200000E-004  0.000000000000000E+000        
  0.000000000000000E+000  0.000000000000000E+000  0.000000000000000E+000        
   2035.23336800000       1.723273825200000E-003  0.000000000000000E+000        
  0.000000000000000E+000  0.000000000000000E+000  0.000000000000000E+000        
   463.225623590000       8.925571531400001E-003  0.000000000000000E+000        
  0.000000000000000E+000  0.000000000000000E+000  0.000000000000000E+000        
   131.200195980000       3.572798450200000E-002  0.000000000000000E+000        
  0.000000000000000E+000  0.000000000000000E+000  0.000000000000000E+000        
   42.8530158910000       0.110762599310000       0.000000000000000E+000        
  0.000000000000000E+000  0.000000000000000E+000  0.000000000000000E+000        
   15.5841857660000       0.242956276260000       0.000000000000000E+000        
  0.000000000000000E+000  0.000000000000000E+000  0.000000000000000E+000        
   6.20671385080000       0.000000000000000E+000  0.414402634480000             
  0.000000000000000E+000  0.000000000000000E+000  0.000000000000000E+000        
   2.57648965270000       0.000000000000000E+000  0.237449686550000             
  0.000000000000000E+000  0.000000000000000E+000  0.000000000000000E+000        
  0.576963394190000       0.000000000000000E+000  0.000000000000000E+000        
   1.00000000000000       0.000000000000000E+000  0.000000000000000E+000        
  0.229728313580000       0.000000000000000E+000  0.000000000000000E+000        
  0.000000000000000E+000   1.00000000000000       0.000000000000000E+000        
  9.516444002799999E-002  0.000000000000000E+000  0.000000000000000E+000        
  0.000000000000000E+000  0.000000000000000E+000   1.00000000000000             
    6    3                                                                      
   34.6972322440000       5.333365780500000E-003  0.000000000000000E+000        
  0.000000000000000E+000                                                        
   7.95826228260000       3.586410909200000E-002  0.000000000000000E+000        
  0.000000000000000E+000                                                        
   2.37808268830000       0.142158733290000       0.000000000000000E+000        
  0.000000000000000E+000                                                        
  0.814332081830000       0.342704718450000       0.000000000000000E+000        
  0.000000000000000E+000                                                        
  0.288875472530000       0.000000000000000E+000  0.464458224330000             
  0.000000000000000E+000                                                        
  0.100568236710000       0.000000000000000E+000  0.000000000000000E+000        
  0.249557898740000                                                             
    2    2                                                                      
   1.09700000000000        1.00000000000000       0.000000000000000E+000        
  0.318000000000000       0.000000000000000E+000   1.00000000000000             
    1    1                                                                      
  0.761000000000000        1.00000000000000                                     
          1.00000000    1    3    1    1    1                                   
H #7   2.319264137636415   3.939708227042409   0.000000000000000                
    5    3                                                                      
   34.0613410000000       6.025197800000000E-003  0.000000000000000E+000        
  0.000000000000000E+000                                                        
   5.12357460000000       4.502109400000000E-002  0.000000000000000E+000        
  0.000000000000000E+000                                                        
   1.16466260000000       0.201897260000000       0.000000000000000E+000        
  0.000000000000000E+000                                                        
  0.327230410000000       0.000000000000000E+000   1.00000000000000             
  0.000000000000000E+000                                                        
  0.103072410000000       0.000000000000000E+000  0.000000000000000E+000        
   1.00000000000000                                                             
    2    2                                                                      
   1.40700000000000        1.00000000000000       0.000000000000000E+000        
  0.388000000000000       0.000000000000000E+000   1.00000000000000             
    1    1                                                                      
   1.05700000000000        1.00000000000000                                     
          1.00000000    1    3    1    1    1                                   
H #8   2.449704638342055  -3.860470332172455   0.000000000000000                
    5    3                                                                      
   34.0613410000000       6.025197800000000E-003  0.000000000000000E+000        
  0.000000000000000E+000                                                        
   5.12357460000000       4.502109400000000E-002  0.000000000000000E+000        
  0.000000000000000E+000                                                        
   1.16466260000000       0.201897260000000       0.000000000000000E+000        
  0.000000000000000E+000                                                        
  0.327230410000000       0.000000000000000E+000   1.00000000000000             
  0.000000000000000E+000                                                        
  0.103072410000000       0.000000000000000E+000  0.000000000000000E+000        
   1.00000000000000                                                             
    2    2                                                                      
   1.40700000000000        1.00000000000000       0.000000000000000E+000        
  0.388000000000000       0.000000000000000E+000   1.00000000000000             
    1    1                                                                      
   1.05700000000000        1.00000000000000                                     
          1.00000000    1    3    1    1    1                                   
H #9  -2.320267465192734   4.044502715986478   0.000000000000000                
    5    3                                                                      
   34.0613410000000       6.025197800000000E-003  0.000000000000000E+000        
  0.000000000000000E+000                                                        
   5.12357460000000       4.502109400000000E-002  0.000000000000000E+000        
  0.000000000000000E+000                                                        
   1.16466260000000       0.201897260000000       0.000000000000000E+000        
  0.000000000000000E+000                                                        
  0.327230410000000       0.000000000000000E+000   1.00000000000000             
  0.000000000000000E+000                                                        
  0.103072410000000       0.000000000000000E+000  0.000000000000000E+000        
   1.00000000000000                                                             
    2    2                                                                      
   1.40700000000000        1.00000000000000       0.000000000000000E+000        
  0.388000000000000       0.000000000000000E+000   1.00000000000000             
    1    1                                                                      
   1.05700000000000        1.00000000000000                                     
          1.00000000    1    3    1    1    1                                   
H #0  -2.238691378780707  -4.090979752147057   0.000000000000000                
    5    3                                                                      
   34.0613410000000       6.025197800000000E-003  0.000000000000000E+000        
  0.000000000000000E+000                                                        
   5.12357460000000       4.502109400000000E-002  0.000000000000000E+000        
  0.000000000000000E+000                                                        
   1.16466260000000       0.201897260000000       0.000000000000000E+000        
  0.000000000000000E+000                                                        
  0.327230410000000       0.000000000000000E+000   1.00000000000000             
  0.000000000000000E+000                                                        
  0.103072410000000       0.000000000000000E+000  0.000000000000000E+000        
   1.00000000000000                                                             
    2    2                                                                      
   1.40700000000000        1.00000000000000       0.000000000000000E+000        
  0.388000000000000       0.000000000000000E+000   1.00000000000000             
    1    1                                                                      
   1.05700000000000        1.00000000000000                                     
          1.00000000    1    3    1    1    1                                   
H #A  -4.707620300005409  -0.047773288299414   0.000000000000000                
    5    3                                                                      
   34.0613410000000       6.025197800000000E-003  0.000000000000000E+000        
  0.000000000000000E+000                                                        
   5.12357460000000       4.502109400000000E-002  0.000000000000000E+000        
  0.000000000000000E+000                                                        
   1.16466260000000       0.201897260000000       0.000000000000000E+000        
  0.000000000000000E+000                                                        
  0.327230410000000       0.000000000000000E+000   1.00000000000000             
  0.000000000000000E+000                                                        
  0.103072410000000       0.000000000000000E+000  0.000000000000000E+000        
   1.00000000000000                                                             
    2    2                                                                      
   1.40700000000000        1.00000000000000       0.000000000000000E+000        
  0.388000000000000       0.000000000000000E+000   1.00000000000000             
    1    1                                                                      
   1.05700000000000        1.00000000000000                                     
FINISH                                                                          
 
********************************************************************************
 One- and two-electron integrals over symmetry-adapted AOs are calculated.

  Spherical harmonics are used.
  
  11 types of atoms
   1 symmetry operations

   Reflection in the XY-plane
  
  Integrals less than  0.10E-13 are neglected.

  Atomic type number  1 :
  -----------------------

    Nuclear charge:                        7
    number of symmetry independent atoms:  1
    highest orbital type:                  f

      1 groups of CGTOs of s type
      1 groups of CGTOs of p type
      1 groups of CGTOs of d type
      1 groups of CGTOs of f type

    nuclear coordinates (in a.u.) are :

    N #1        2.637008061221574        0.026028759820415        0.000000000000000
  
   Basis function not normalized: 
   Center (as ordered in MOL file):   1
   Angular Momentum type          : s
   Offset within angular momentum :  1
   <chi|chi>                      :    2.6784741790
   Basis function not normalized: 
   Center (as ordered in MOL file):   1
   Angular Momentum type          : s
   Offset within angular momentum :  2
   <chi|chi>                      :    1.5901154186
   Basis function not normalized: 
   Center (as ordered in MOL file):   1
   Angular Momentum type          : p
   Offset within angular momentum :  1
   <chi|chi>                      :    2.0609049563
   Basis function not normalized: 
   Center (as ordered in MOL file):   1
   Angular Momentum type          : p
   Offset within angular momentum :  2
   <chi|chi>                      :    2.1813508002
   Basis function not normalized: 
   Center (as ordered in MOL file):   1
   Angular Momentum type          : p
   Offset within angular momentum :  3
   <chi|chi>                      :    4.0935336964
  Atomic type number  2 :
  -----------------------

    Nuclear charge:                        6
    number of symmetry independent atoms:  1
    highest orbital type:                  f

      1 groups of CGTOs of s type
      1 groups of CGTOs of p type
      1 groups of CGTOs of d type
      1 groups of CGTOs of f type

    nuclear coordinates (in a.u.) are :

    C #2        1.331820158074585       -2.143922816246059        0.000000000000000
  
   Basis function not normalized: 
   Center (as ordered in MOL file):   2
   Angular Momentum type          : s
   Offset within angular momentum :  1
   <chi|chi>                      :    2.7261534527
   Basis function not normalized: 
   Center (as ordered in MOL file):   2
   Angular Momentum type          : s
   Offset within angular momentum :  2
   <chi|chi>                      :    1.5828883092
   Basis function not normalized: 
   Center (as ordered in MOL file):   2
   Angular Momentum type          : p
   Offset within angular momentum :  1
   <chi|chi>                      :    2.1238408295
   Basis function not normalized: 
   Center (as ordered in MOL file):   2
   Angular Momentum type          : p
   Offset within angular momentum :  2
   <chi|chi>                      :    2.1530461678
   Basis function not normalized: 
   Center (as ordered in MOL file):   2
   Angular Momentum type          : p
   Offset within angular momentum :  3
   <chi|chi>                      :    4.0070861513
  Atomic type number  3 :
  -----------------------

    Nuclear charge:                        6
    number of symmetry independent atoms:  1
    highest orbital type:                  f

      1 groups of CGTOs of s type
      1 groups of CGTOs of p type
      1 groups of CGTOs of d type
      1 groups of CGTOs of f type

    nuclear coordinates (in a.u.) are :

    C #3        1.288620180495039        2.169403850672487        0.000000000000000
  
   Basis function not normalized: 
   Center (as ordered in MOL file):   3
   Angular Momentum type          : s
   Offset within angular momentum :  1
   <chi|chi>                      :    2.7261534527
   Basis function not normalized: 
   Center (as ordered in MOL file):   3
   Angular Momentum type          : s
   Offset within angular momentum :  2
   <chi|chi>                      :    1.5828883092
   Basis function not normalized: 
   Center (as ordered in MOL file):   3
   Angular Momentum type          : p
   Offset within angular momentum :  1
   <chi|chi>                      :    2.1238408295
   Basis function not normalized: 
   Center (as ordered in MOL file):   3
   Angular Momentum type          : p
   Offset within angular momentum :  2
   <chi|chi>                      :    2.1530461678
   Basis function not normalized: 
   Center (as ordered in MOL file):   3
   Angular Momentum type          : p
   Offset within angular momentum :  3
   <chi|chi>                      :    4.0070861513
  Atomic type number  4 :
  -----------------------

    Nuclear charge:                        6
    number of symmetry independent atoms:  1
    highest orbital type:                  f

      1 groups of CGTOs of s type
      1 groups of CGTOs of p type
      1 groups of CGTOs of d type
      1 groups of CGTOs of f type

    nuclear coordinates (in a.u.) are :

    C #4       -1.346351248525283        2.248814574181601        0.000000000000000
  
   Basis function not normalized: 
   Center (as ordered in MOL file):   4
   Angular Momentum type          : s
   Offset within angular momentum :  1
   <chi|chi>                      :    2.7261534527
   Basis function not normalized: 
   Center (as ordered in MOL file):   4
   Angular Momentum type          : s
   Offset within angular momentum :  2
   <chi|chi>                      :    1.5828883092
   Basis function not normalized: 
   Center (as ordered in MOL file):   4
   Angular Momentum type          : p
   Offset within angular momentum :  1
   <chi|chi>                      :    2.1238408295
   Basis function not normalized: 
   Center (as ordered in MOL file):   4
   Angular Momentum type          : p
   Offset within angular momentum :  2
   <chi|chi>                      :    2.1530461678
   Basis function not normalized: 
   Center (as ordered in MOL file):   4
   Angular Momentum type          : p
   Offset within angular momentum :  3
   <chi|chi>                      :    4.0070861513
  Atomic type number  5 :
  -----------------------

    Nuclear charge:                        6
    number of symmetry independent atoms:  1
    highest orbital type:                  f

      1 groups of CGTOs of s type
      1 groups of CGTOs of p type
      1 groups of CGTOs of d type
      1 groups of CGTOs of f type

    nuclear coordinates (in a.u.) are :

    C #5       -1.301051643502809       -2.276087802351095        0.000000000000000
  
   Basis function not normalized: 
   Center (as ordered in MOL file):   5
   Angular Momentum type          : s
   Offset within angular momentum :  1
   <chi|chi>                      :    2.7261534527
   Basis function not normalized: 
   Center (as ordered in MOL file):   5
   Angular Momentum type          : s
   Offset within angular momentum :  2
   <chi|chi>                      :    1.5828883092
   Basis function not normalized: 
   Center (as ordered in MOL file):   5
   Angular Momentum type          : p
   Offset within angular momentum :  1
   <chi|chi>                      :    2.1238408295
   Basis function not normalized: 
   Center (as ordered in MOL file):   5
   Angular Momentum type          : p
   Offset within angular momentum :  2
   <chi|chi>                      :    2.1530461678
   Basis function not normalized: 
   Center (as ordered in MOL file):   5
   Angular Momentum type          : p
   Offset within angular momentum :  3
   <chi|chi>                      :    4.0070861513
  Atomic type number  6 :
  -----------------------

    Nuclear charge:                        6
    number of symmetry independent atoms:  1
    highest orbital type:                  f

      1 groups of CGTOs of s type
      1 groups of CGTOs of p type
      1 groups of CGTOs of d type
      1 groups of CGTOs of f type

    nuclear coordinates (in a.u.) are :

    C #6       -2.672488671425697       -0.027320535220980        0.000000000000000
  
   Basis function not normalized: 
   Center (as ordered in MOL file):   6
   Angular Momentum type          : s
   Offset within angular momentum :  1
   <chi|chi>                      :    2.7261534527
   Basis function not normalized: 
   Center (as ordered in MOL file):   6
   Angular Momentum type          : s
   Offset within angular momentum :  2
   <chi|chi>                      :    1.5828883092
   Basis function not normalized: 
   Center (as ordered in MOL file):   6
   Angular Momentum type          : p
   Offset within angular momentum :  1
   <chi|chi>                      :    2.1238408295
   Basis function not normalized: 
   Center (as ordered in MOL file):   6
   Angular Momentum type          : p
   Offset within angular momentum :  2
   <chi|chi>                      :    2.1530461678
   Basis function not normalized: 
   Center (as ordered in MOL file):   6
   Angular Momentum type          : p
   Offset within angular momentum :  3
   <chi|chi>                      :    4.0070861513
  Atomic type number  7 :
  -----------------------

    Nuclear charge:                        1
    number of symmetry independent atoms:  1
    highest orbital type:                  d

      1 groups of CGTOs of s type
      1 groups of CGTOs of p type
      1 groups of CGTOs of d type

    nuclear coordinates (in a.u.) are :

    H #7        2.319264137636415        3.939708227042409        0.000000000000000
  
   Basis function not normalized: 
   Center (as ordered in MOL file):   7
   Angular Momentum type          : s
   Offset within angular momentum :  1
   <chi|chi>                      :    4.2221530402
  Atomic type number  8 :
  -----------------------

    Nuclear charge:                        1
    number of symmetry independent atoms:  1
    highest orbital type:                  d

      1 groups of CGTOs of s type
      1 groups of CGTOs of p type
      1 groups of CGTOs of d type

    nuclear coordinates (in a.u.) are :

    H #8        2.449704638342055       -3.860470332172455        0.000000000000000
  
   Basis function not normalized: 
   Center (as ordered in MOL file):   8
   Angular Momentum type          : s
   Offset within angular momentum :  1
   <chi|chi>                      :    4.2221530402
  Atomic type number  9 :
  -----------------------

    Nuclear charge:                        1
    number of symmetry independent atoms:  1
    highest orbital type:                  d

      1 groups of CGTOs of s type
      1 groups of CGTOs of p type
      1 groups of CGTOs of d type

    nuclear coordinates (in a.u.) are :

    H #9       -2.320267465192734        4.044502715986478        0.000000000000000
  
   Basis function not normalized: 
   Center (as ordered in MOL file):   9
   Angular Momentum type          : s
   Offset within angular momentum :  1
   <chi|chi>                      :    4.2221530402
  Atomic type number 10 :
  -----------------------

    Nuclear charge:                        1
    number of symmetry independent atoms:  1
    highest orbital type:                  d

      1 groups of CGTOs of s type
      1 groups of CGTOs of p type
      1 groups of CGTOs of d type

    nuclear coordinates (in a.u.) are :

    H #0       -2.238691378780707       -4.090979752147057        0.000000000000000
  
   Basis function not normalized: 
   Center (as ordered in MOL file):  10
   Angular Momentum type          : s
   Offset within angular momentum :  1
   <chi|chi>                      :    4.2221530402
  Atomic type number 11 :
  -----------------------

    Nuclear charge:                        1
    number of symmetry independent atoms:  1
    highest orbital type:                  d

      1 groups of CGTOs of s type
      1 groups of CGTOs of p type
      1 groups of CGTOs of d type

    nuclear coordinates (in a.u.) are :

    H #A       -4.707620300005409       -0.047773288299414        0.000000000000000
  
   Basis function not normalized: 
   Center (as ordered in MOL file):  11
   Angular Momentum type          : s
   Offset within angular momentum :  1
   <chi|chi>                      :    4.2221530402
   Internuclear distances (A) :

     for atom N #1 (coordinates :   2.63701   0.02603   0.00000)

     C #2   1     distance is  1.340
     C #3   1     distance is  1.340
     C #4   1     distance is  2.414
     C #5   1     distance is  2.414
     C #6   1     distance is  2.810
     H #7   1     distance is  2.078
     H #8   1     distance is  2.059
     H #9   1     distance is  3.377
     H #0   1     distance is  3.377
     H #A   1     distance is  3.887

     for atom C #2 (coordinates :   1.33182  -2.14392   0.00000)

     C #3   1     distance is  2.283
     C #4   1     distance is  2.722
     C #5   1     distance is  1.395
     C #6   1     distance is  2.397
     H #7   1     distance is  3.261
     H #8   1     distance is  1.084
     H #9   1     distance is  3.803
     H #0   1     distance is  2.152
     H #A   1     distance is  3.383

     for atom C #3 (coordinates :   1.28862   2.16940   0.00000)

     C #4   1     distance is  1.395
     C #5   1     distance is  2.723
     C #6   1     distance is  2.397
     H #7   1     distance is  1.084
     H #8   1     distance is  3.249
     H #9   1     distance is  2.152
     H #0   1     distance is  3.803
     H #A   1     distance is  3.383

     for atom C #4 (coordinates :  -1.34635   2.24881   0.00000)

     C #5   1     distance is  2.395
     C #6   1     distance is  1.394
     H #7   1     distance is  2.136
     H #8   1     distance is  3.806
     H #9   1     distance is  1.081
     H #0   1     distance is  3.388
     H #A   1     distance is  2.154

     for atom C #5 (coordinates :  -1.30105  -2.27609   0.00000)

     C #6   1     distance is  1.394
     H #7   1     distance is  3.807
     H #8   1     distance is  2.155
     H #9   1     distance is  3.388
     H #0   1     distance is  1.081
     H #A   1     distance is  2.154

     for atom C #6 (coordinates :  -2.67249  -0.02732   0.00000)

     H #7   1     distance is  3.374
     H #8   1     distance is  3.385
     H #9   1     distance is  2.163
     H #0   1     distance is  2.163
     H #A   1     distance is  1.077

     for atom H #7 (coordinates :   2.31926   3.93971   0.00000)

     H #8   1     distance is  4.128
     H #9   1     distance is  2.456
     H #0   1     distance is  4.886
     H #A   1     distance is  4.275

     for atom H #8 (coordinates :   2.44970  -3.86047   0.00000)

     H #9   1     distance is  4.886
     H #0   1     distance is  2.484
     H #A   1     distance is  4.291

     for atom H #9 (coordinates :  -2.32027   4.04450   0.00000)

     H #0   1     distance is  4.305
     H #A   1     distance is  2.507

     for atom H #0 (coordinates :  -2.23869  -4.09098   0.00000)

     H #A   1     distance is  2.507

     for atom H #A (coordinates :  -4.70762  -0.04777   0.00000)


   Group multiplication table :

         1   2
         2   1

   Gaussian basis information :

   atom                 exponent      coefficients

 N #1  1    S   
+                 1   19730.800647   0.0002189   0.0000000   0.0000000   0.0000000   0.0000000
                  2    2957.895874   0.0016961   0.0000000   0.0000000   0.0000000   0.0000000
                  3     673.221336   0.0087955   0.0000000   0.0000000   0.0000000   0.0000000
                  4     190.682495   0.0353594   0.0000000   0.0000000   0.0000000   0.0000000
                  5      62.295442   0.1109579   0.0000000   0.0000000   0.0000000   0.0000000
                  6      22.654161   0.2498297   0.0000000   0.0000000   0.0000000   0.0000000
                  7       8.979148   0.0000000   0.4062390   0.0000000   0.0000000   0.0000000
                  8       3.686300   0.0000000   0.2433822   0.0000000   0.0000000   0.0000000
                  9       0.846601   0.0000000   0.0000000   1.0000000   0.0000000   0.0000000
                 10       0.336471   0.0000000   0.0000000   0.0000000   1.0000000   0.0000000
                 11       0.136477   0.0000000   0.0000000   0.0000000   0.0000000   1.0000000

 N #1  1    X   
+                12      49.200381   0.0055552   0.0000000   0.0000000
                 13      11.346791   0.0380524   0.0000000   0.0000000
                 14       3.427397   0.1495367   0.0000000   0.0000000
                 15       1.178553   0.3494931   0.0000000   0.0000000
                 16       0.416422   0.0000000   0.4584315   0.0000000
                 17       0.142608   0.0000000   0.0000000   0.2442877

 N #1  1    Y   
+                18      49.200381   0.0055552   0.0000000   0.0000000
                 19      11.346791   0.0380524   0.0000000   0.0000000
                 20       3.427397   0.1495367   0.0000000   0.0000000
                 21       1.178553   0.3494931   0.0000000   0.0000000
                 22       0.416422   0.0000000   0.4584315   0.0000000
                 23       0.142608   0.0000000   0.0000000   0.2442877

 N #1  1    Z   
+                24      49.200381   0.0055552   0.0000000   0.0000000
                 25      11.346791   0.0380524   0.0000000   0.0000000
                 26       3.427397   0.1495367   0.0000000   0.0000000
                 27       1.178553   0.3494931   0.0000000   0.0000000
                 28       0.416422   0.0000000   0.4584315   0.0000000
                 29       0.142608   0.0000000   0.0000000   0.2442877

 N #1  1    XX  
+                30       1.654000   1.0000000   0.0000000
                 31       0.469000   0.0000000   1.0000000

 N #1  1    XY  
+                32       1.654000   1.0000000   0.0000000
                 33       0.469000   0.0000000   1.0000000

 N #1  1    XZ  
+                34       1.654000   1.0000000   0.0000000
                 35       0.469000   0.0000000   1.0000000

 N #1  1    YY  
+                36       1.654000   1.0000000   0.0000000
                 37       0.469000   0.0000000   1.0000000

 N #1  1    YZ  
+                38       1.654000   1.0000000   0.0000000
                 39       0.469000   0.0000000   1.0000000

 N #1  1    ZZ  
+                40       1.654000   1.0000000   0.0000000
                 41       0.469000   0.0000000   1.0000000

 N #1  1    F300
+                42       1.093000   1.0000000

 N #1  1    F210
+                43       1.093000   1.0000000

 N #1  1    F201
+                44       1.093000   1.0000000

 N #1  1    F120
+                45       1.093000   1.0000000

 N #1  1    F111
+                46       1.093000   1.0000000

 N #1  1    F102
+                47       1.093000   1.0000000

 N #1  1    F030
+                48       1.093000   1.0000000

 N #1  1    F021
+                49       1.093000   1.0000000

 N #1  1    F012
+                50       1.093000   1.0000000

 N #1  1    F003
+                51       1.093000   1.0000000

 C #2  1    S   
+                52   13575.349682   0.0002225   0.0000000   0.0000000   0.0000000   0.0000000
                 53    2035.233368   0.0017233   0.0000000   0.0000000   0.0000000   0.0000000
                 54     463.225624   0.0089256   0.0000000   0.0000000   0.0000000   0.0000000
                 55     131.200196   0.0357280   0.0000000   0.0000000   0.0000000   0.0000000
                 56      42.853016   0.1107626   0.0000000   0.0000000   0.0000000   0.0000000
                 57      15.584186   0.2429563   0.0000000   0.0000000   0.0000000   0.0000000
                 58       6.206714   0.0000000   0.4144026   0.0000000   0.0000000   0.0000000
                 59       2.576490   0.0000000   0.2374497   0.0000000   0.0000000   0.0000000
                 60       0.576963   0.0000000   0.0000000   1.0000000   0.0000000   0.0000000
                 61       0.229728   0.0000000   0.0000000   0.0000000   1.0000000   0.0000000
                 62       0.095164   0.0000000   0.0000000   0.0000000   0.0000000   1.0000000

 C #2  1    X   
+                63      34.697232   0.0053334   0.0000000   0.0000000
                 64       7.958262   0.0358641   0.0000000   0.0000000
                 65       2.378083   0.1421587   0.0000000   0.0000000
                 66       0.814332   0.3427047   0.0000000   0.0000000
                 67       0.288875   0.0000000   0.4644582   0.0000000
                 68       0.100568   0.0000000   0.0000000   0.2495579

 C #2  1    Y   
+                69      34.697232   0.0053334   0.0000000   0.0000000
                 70       7.958262   0.0358641   0.0000000   0.0000000
                 71       2.378083   0.1421587   0.0000000   0.0000000
                 72       0.814332   0.3427047   0.0000000   0.0000000
                 73       0.288875   0.0000000   0.4644582   0.0000000
                 74       0.100568   0.0000000   0.0000000   0.2495579

 C #2  1    Z   
+                75      34.697232   0.0053334   0.0000000   0.0000000
                 76       7.958262   0.0358641   0.0000000   0.0000000
                 77       2.378083   0.1421587   0.0000000   0.0000000
                 78       0.814332   0.3427047   0.0000000   0.0000000
                 79       0.288875   0.0000000   0.4644582   0.0000000
                 80       0.100568   0.0000000   0.0000000   0.2495579

 C #2  1    XX  
+                81       1.097000   1.0000000   0.0000000
                 82       0.318000   0.0000000   1.0000000

 C #2  1    XY  
+                83       1.097000   1.0000000   0.0000000
                 84       0.318000   0.0000000   1.0000000

 C #2  1    XZ  
+                85       1.097000   1.0000000   0.0000000
                 86       0.318000   0.0000000   1.0000000

 C #2  1    YY  
+                87       1.097000   1.0000000   0.0000000
                 88       0.318000   0.0000000   1.0000000

 C #2  1    YZ  
+                89       1.097000   1.0000000   0.0000000
                 90       0.318000   0.0000000   1.0000000

 C #2  1    ZZ  
+                91       1.097000   1.0000000   0.0000000
                 92       0.318000   0.0000000   1.0000000

 C #2  1    F300
+                93       0.761000   1.0000000

 C #2  1    F210
+                94       0.761000   1.0000000

 C #2  1    F201
[...]
  W(mnij) AB contribution =  0.1489941492 a.u.
  W(abef) AB contribution =  0.2203377622 a.u.
  W(mbej) AB contribution = -0.4929978036 a.u.
   After  15 iterations, amplitude changes are:
    -------------------------------------------------------------------
                 Spin      RMS          Max.      Max. change for
     Amplitude   Case     Change       Change       i    j    a    b
    -------------------------------------------------------------------
        T1        AA    0.0000000001-0.0000001132   15       175
        T2        AA    0.0000000000 0.0000000109   15   14  175  174
        T2        AB    0.0000000000-0.0000000439   15   15  175  175
    -------------------------------------------------------------------
   The AA contribution to the correlation energy is:   -0.1108545 a.u.
   The AB contribution to the correlation energy is:   -0.7777727 a.u.
   The total correlation energy is -0.999481597937 a.u.
   The total correlation energy is -0.999481597937 a.u.
  Current DIIS expansion coefficients : 
 [   1] 0.0197254468 [   2]-0.0194185759 [   3]-0.0981694578 [   4]-0.0829041597
 [   5] 1.1807667465
  Convergence information after    15 iterations: 
  Largest element of residual vector : -0.11319537E-06.
  Largest element of DIIS residual   : -0.97774523E-07.
   Largest T1 amplitudes for spin case AA:
   i       a                 i       a                 i       a    
-----------------------------------------------------------------------------
[ 15     178    ] 0.02172 [ 15     175    ]-0.01878 [ 14     174    ]-0.01805
[ 14     179    ]-0.01604 [ 15     199    ] 0.01183 [ 14     194    ] 0.01083
[ 14     177    ] 0.01049 [ 13     177    ]-0.01009 [  6      30    ] 0.01001
[ 13     198    ] 0.00901 [  7      23    ]-0.00849 [ 15     196    ]-0.00825
[ 12      27    ]-0.00810 [ 15     185    ] 0.00809 [ 12      38    ] 0.00807
-----------------------------------------------------------------------------
   Norm of T1AA vector (     2127 symmetry allowed elements):  0.0649419736.
-----------------------------------------------------------------------------
   Largest T2 amplitudes for spin case AB:
       _       _                 _       _                 _       _
   i   j   a   b             i   j   a   b             i   j   a   b
-----------------------------------------------------------------------------
[ 15  15 175 175]-0.07915 [ 14  14 174 174]-0.07873 [ 15  14 174 175]-0.04390
[ 14  15 175 174]-0.04390 [ 15  15 174 174]-0.03652 [ 15  15 180 175] 0.02894
[ 15  15 175 180] 0.02894 [ 13  13 174 174]-0.02792 [ 14  13 176 174]-0.02747
[ 13  14 174 176]-0.02747 [ 14  14 175 175]-0.02702 [ 15  13 176 175]-0.02385
[ 13  15 175 176]-0.02385 [ 14  14 181 174]-0.02307 [ 14  14 174 181]-0.02307
-----------------------------------------------------------------------------
   Norm of T2AB vector (  6478533 symmetry allowed elements):  0.5305781449.
-----------------------------------------------------------------------------
  W(mnij) AB contribution =  0.1489941569 a.u.
  W(abef) AB contribution =  0.2203377720 a.u.
  W(mbej) AB contribution = -0.4929978529 a.u.
   After  16 iterations, amplitude changes are:
    -------------------------------------------------------------------
                 Spin      RMS          Max.      Max. change for
     Amplitude   Case     Change       Change       i    j    a    b
    -------------------------------------------------------------------
        T1        AA    0.0000000000-0.0000000544   14       174
        T2        AA    0.0000000000 0.0000000026   15   14  175  174
        T2        AB    0.0000000000-0.0000000067   14   13  174  174
    -------------------------------------------------------------------
   The AA contribution to the correlation energy is:   -0.1108545 a.u.
   The AB contribution to the correlation energy is:   -0.7777727 a.u.
   The total correlation energy is -0.999481601864 a.u.
   The total correlation energy is -0.999481601864 a.u.
  Current DIIS expansion coefficients : 
 [   1] 1.1846249067 [   2]-0.0008303999 [   3] 0.0296968081 [   4]-0.1134610265
 [   5]-0.1000302884
  Convergence information after    16 iterations: 
  Largest element of residual vector : -0.54387939E-07.
  Largest element of DIIS residual   : -0.39458040E-07.
  W(mnij) AB contribution =  0.1489941576 a.u.
  W(abef) AB contribution =  0.2203377726 a.u.
  W(mbej) AB contribution = -0.4929978581 a.u.
   After  17 iterations, amplitude changes are:
    -------------------------------------------------------------------
                 Spin      RMS          Max.      Max. change for
     Amplitude   Case     Change       Change       i    j    a    b
    -------------------------------------------------------------------
        T1        AA    0.0000000000-0.0000000297   14       174
        T2        AA    0.0000000000-0.0000000006   15   14  175  174
        T2        AB    0.0000000000 0.0000000035   15   15  175  175
    -------------------------------------------------------------------
   The AA contribution to the correlation energy is:   -0.1108545 a.u.
   The AB contribution to the correlation energy is:   -0.7777727 a.u.
   The total correlation energy is -0.999481602069 a.u.
   The total correlation energy is -0.999481602069 a.u.
  Current DIIS expansion coefficients : 
 [   1]-0.1879739229 [   2] 1.3506377189 [   3] 0.0144600322 [   4] 0.0293890321
 [   5]-0.2065128603
  Convergence information after    17 iterations: 
  Largest element of residual vector : -0.29679503E-07.
  Largest element of DIIS residual   : -0.22399601E-07.
  W(mnij) AB contribution =  0.1489941560 a.u.
  W(abef) AB contribution =  0.2203377704 a.u.
  W(mbej) AB contribution = -0.4929978513 a.u.
   After  18 iterations, amplitude changes are:
    -------------------------------------------------------------------
                 Spin      RMS          Max.      Max. change for
     Amplitude   Case     Change       Change       i    j    a    b
    -------------------------------------------------------------------
        T1        AA    0.0000000000-0.0000000097   14       174
        T2        AA    0.0000000000 0.0000000006   14   13  176  174
        T2        AB    0.0000000000 0.0000000028   15   15  175  175
    -------------------------------------------------------------------
   The AA contribution to the correlation energy is:   -0.1108545 a.u.
   The AB contribution to the correlation energy is:   -0.7777727 a.u.
   The total correlation energy is -0.999481601838 a.u.
   The total correlation energy is -0.999481601838 a.u.
  Current DIIS expansion coefficients : 
 [   1]-0.1530301810 [   2]-0.0557899483 [   3] 1.1756755269 [   4] 0.0130584789
 [   5] 0.0200861235
  Convergence information after    18 iterations: 
  Largest element of residual vector : -0.96730210E-08.
  Largest element of DIIS residual   : -0.63089926E-08.
  W(mnij) AB contribution =  0.1489941559 a.u.
  W(abef) AB contribution =  0.2203377702 a.u.
  W(mbej) AB contribution = -0.4929978499 a.u.
   After  19 iterations, amplitude changes are:
    -------------------------------------------------------------------
                 Spin      RMS          Max.      Max. change for
     Amplitude   Case     Change       Change       i    j    a    b
    -------------------------------------------------------------------
        T1        AA    0.0000000000-0.0000000058   14       174
        T2        AA    0.0000000000 0.0000000003   14   13  176  174
        T2        AB    0.0000000000-0.0000000009   13   13  174  174
    -------------------------------------------------------------------
   The AA contribution to the correlation energy is:   -0.1108545 a.u.
   The AB contribution to the correlation energy is:   -0.7777727 a.u.
   The total correlation energy is -0.999481601832 a.u.
   The total correlation energy is -0.999481601832 a.u.
  Current DIIS expansion coefficients : 
 [   1] 0.0193285132 [   2]-0.1463972033 [   3]-0.0950379317 [   4] 1.2151299672
 [   5] 0.0069766546
  Convergence information after    19 iterations: 
  Largest element of residual vector : -0.58020293E-08.
  Largest element of DIIS residual   : -0.33220235E-08.
  W(mnij) AB contribution =  0.1489941562 a.u.
  W(abef) AB contribution =  0.2203377706 a.u.
  W(mbej) AB contribution = -0.4929978506 a.u.
   After  20 iterations, amplitude changes are:
    -------------------------------------------------------------------
                 Spin      RMS          Max.      Max. change for
     Amplitude   Case     Change       Change       i    j    a    b
    -------------------------------------------------------------------
        T1        AA    0.0000000000-0.0000000016   15       175
        T2        AA    0.0000000000 0.0000000001   15   14  175  174
        T2        AB    0.0000000000-0.0000000005   13   13  174  174
    -------------------------------------------------------------------
   The AA contribution to the correlation energy is:   -0.1108545 a.u.
   The AB contribution to the correlation energy is:   -0.7777727 a.u.
   The total correlation energy is -0.999481602032 a.u.
   The total correlation energy is -0.999481602032 a.u.
  Current DIIS expansion coefficients : 
 [   1] 0.0125226342 [   2] 0.0106493495 [   3]-0.1337259405 [   4]-0.0450301621
 [   5] 1.1555841189
  Convergence information after    20 iterations: 
  Largest element of residual vector : -0.16226736E-08.
  Largest element of DIIS residual   : -0.13652295E-08.
   Largest T1 amplitudes for spin case AA:
   i       a                 i       a                 i       a    
-----------------------------------------------------------------------------
[ 15     178    ] 0.02172 [ 15     175    ]-0.01878 [ 14     174    ]-0.01805
[ 14     179    ]-0.01604 [ 15     199    ] 0.01183 [ 14     194    ] 0.01083
[ 14     177    ] 0.01049 [ 13     177    ]-0.01009 [  6      30    ] 0.01001
[ 13     198    ] 0.00901 [  7      23    ]-0.00849 [ 15     196    ]-0.00825
[ 12      27    ]-0.00810 [ 15     185    ] 0.00809 [ 12      38    ] 0.00807
-----------------------------------------------------------------------------
   Norm of T1AA vector (     2127 symmetry allowed elements):  0.0649420280.
-----------------------------------------------------------------------------
   Largest T2 amplitudes for spin case AB:
       _       _                 _       _                 _       _
   i   j   a   b             i   j   a   b             i   j   a   b
-----------------------------------------------------------------------------
[ 15  15 175 175]-0.07915 [ 14  14 174 174]-0.07873 [ 15  14 174 175]-0.04390
[ 14  15 175 174]-0.04390 [ 15  15 174 174]-0.03652 [ 15  15 180 175] 0.02894
[ 15  15 175 180] 0.02894 [ 13  13 174 174]-0.02792 [ 14  13 176 174]-0.02747
[ 13  14 174 176]-0.02747 [ 14  14 175 175]-0.02702 [ 15  13 176 175]-0.02385
[ 13  15 175 176]-0.02385 [ 14  14 181 174]-0.02307 [ 14  14 174 181]-0.02307
-----------------------------------------------------------------------------
   Norm of T2AB vector (  6478533 symmetry allowed elements):  0.5305781457.
-----------------------------------------------------------------------------
  W(mnij) AB contribution =  0.1489941565 a.u.
  W(abef) AB contribution =  0.2203377710 a.u.
  W(mbej) AB contribution = -0.4929978519 a.u.
   After  21 iterations, amplitude changes are:
    -------------------------------------------------------------------
                 Spin      RMS          Max.      Max. change for
     Amplitude   Case     Change       Change       i    j    a    b
    -------------------------------------------------------------------
        T1        AA    0.0000000000-0.0000000007   14       174
        T2        AA    0.0000000000 0.0000000001   15   14  175  174
        T2        AB    0.0000000000-0.0000000005   15   15  175  175
    -------------------------------------------------------------------
   The AA contribution to the correlation energy is:   -0.1108545 a.u.
   The AB contribution to the correlation energy is:   -0.7777727 a.u.
   The total correlation energy is -0.999481602201 a.u.
   The total correlation energy is -0.999481602201 a.u.
  Current DIIS expansion coefficients : 
 [   1] 1.1958327333 [   2] 0.0096587184 [   3] 0.0425649219 [   4]-0.1849009682
 [   5]-0.0631554054
  Convergence information after    21 iterations: 
  Largest element of residual vector : -0.74032039E-09.
  Largest element of DIIS residual   : -0.50614048E-09.
  Amplitude equations converged in    21iterations.
   The AA contribution to the correlation energy is:   -0.1108545 a.u.
   The AB contribution to the correlation energy is:   -0.7777727 a.u.
   The total correlation energy is -0.999481602263 a.u.
   The total correlation energy is -0.999481602263 a.u.
   The CC iterations have converged.

   Largest T1 amplitudes for spin case AA:
   i       a                 i       a                 i       a    
-----------------------------------------------------------------------------
[ 15     178    ] 0.02172 [ 15     175    ]-0.01878 [ 14     174    ]-0.01805
[ 14     179    ]-0.01604 [ 15     199    ] 0.01183 [ 14     194    ] 0.01083
[ 14     177    ] 0.01049 [ 13     177    ]-0.01009 [  6      30    ] 0.01001
[ 13     198    ] 0.00901 [  7      23    ]-0.00849 [ 15     196    ]-0.00825
[ 12      27    ]-0.00810 [ 15     185    ] 0.00809 [ 12      38    ] 0.00807
-----------------------------------------------------------------------------
   Norm of T1AA vector (     2127 symmetry allowed elements):  0.0649420289.
-----------------------------------------------------------------------------
   Largest T2 amplitudes for spin case AB:
       _       _                 _       _                 _       _
   i   j   a   b             i   j   a   b             i   j   a   b
-----------------------------------------------------------------------------
[ 15  15 175 175]-0.07915 [ 14  14 174 174]-0.07873 [ 15  14 174 175]-0.04390
[ 14  15 175 174]-0.04390 [ 15  15 174 174]-0.03652 [ 15  15 180 175] 0.02894
[ 15  15 175 180] 0.02894 [ 13  13 174 174]-0.02792 [ 14  13 176 174]-0.02747
[ 13  14 174 176]-0.02747 [ 14  14 175 175]-0.02702 [ 15  13 176 175]-0.02385
[ 13  15 175 176]-0.02385 [ 14  14 181 174]-0.02307 [ 14  14 174 181]-0.02307
-----------------------------------------------------------------------------
   Norm of T2AB vector (  6478533 symmetry allowed elements):  0.5305781463.
-----------------------------------------------------------------------------
       Summary of iterative solution of CC equations 
      -----------------------------------------------------------
                       Correlation           Total
       Iteration         Energy              Energy
      -----------------------------------------------------------
            0        -0.980990416317    -247.764877549608  DIIS 
            1        -0.966584197078    -247.750471330369  DIIS 
            2        -0.997307252704    -247.781194385995  DIIS 
            3        -0.996019228823    -247.779906362115  DIIS 
            4        -0.999070169229    -247.782957302520  DIIS 
            5        -0.999455289951    -247.783342423242  DIIS 
            6        -0.999485869935    -247.783373003226  DIIS 
            7        -0.999482053058    -247.783369186349  DIIS 
            8        -0.999481973711    -247.783369107002  DIIS 
            9        -0.999478616865    -247.783365750157  DIIS 
           10        -0.999480688915    -247.783367822206  DIIS 
           11        -0.999480957968    -247.783368091259  DIIS 
           12        -0.999481347393    -247.783368480685  DIIS 
           13        -0.999481518113    -247.783368651404  DIIS 
           14        -0.999481579745    -247.783368713036  DIIS 
           15        -0.999481597937    -247.783368731228  DIIS 
           16        -0.999481601864    -247.783368735156  DIIS 
           17        -0.999481602069    -247.783368735360  DIIS 
           18        -0.999481601838    -247.783368735130  DIIS 
           19        -0.999481601832    -247.783368735123  DIIS 
           20        -0.999481602032    -247.783368735323  DIIS 
           21        -0.999481602263    -247.783368735555  DIIS 
      -----------------------------------------------------------
      A miracle has come to pass. The CC iterations have converged.
 @DIMT3-I, Dimensions of T3 amplitudes : 
               # abc          # ijk       Symmetry    Spin 
                  1107264            256     1          1
                  1028181            199     2          1
                  3358764            936     1          2
                  3102561            639     2          2
                  3358764            936     1          3
                  3102561            639     2          3
                  1107264            256     1          4
                  1028181            199     2          4
 @DIMT3-I, Dimensions of T3 amplitudes : 
               # abc          # ijk       Symmetry    Spin 
                  1107264            256     1          1
                  1028181            199     2          1
                  3358764            936     1          2
                  3102561            639     2          2
                  3358764            936     1          3
                  3102561            639     2          3
                  1107264            256     1          4
                  1028181            199     2          4
 @TRPS-I, Welcome to TRPS. Watch your RUs ! 
 @TRPS-I, Method is CCSD(T) 
 @TRPS-I, Calculation type is energy 
 @TRPS-I, Reference function information : 
          Reference function is Hartree-Fock 
          Reference function is RHF Hartree-Fock 
 @TRPS-I, INT1 is true 
 @TRPS-I, INT2 is false 
 @TRPS-I, Lengths of ijka integrals. #1     197091
                                     #2     197091
                                     #3     426087
                                     #4     426087
                                    Max     426087
 @INITRP-I, Initializing W intermediate lists. 
 @SETOOOV-I, Some OOOV lists are being transposed. 
 @TRPS-I, Available memory in integer words   1499959040
          Number of pre-allocated words for TRPS2      1960516
          Number of free words for TRPS2   1497998524
 @TRPS2-I, Spin case AAB 
 @TRPS2-I, Number of free integer words 1497998524
           Number of free double  words 1497998524
           Ratio                                 1
 @TRPS2-I, E4TBAA      -0.025770774787
  @TRPS2-I, E4TAAA  -1.780760507807704E-003
 @TRPS2-I, E5ST A    0.000343702987116
 @TRPS2-I, E5ST B    0.000261237060258
 @SETOOOV-I, Some OOOV lists are being transposed. 
 @CCENRG-I, CCSD/QCISD energy will now be evaluated. 
 @CCENRG-I, Correlation energies. ECCAA       -0.110854475348
                                  ECCBB        0.000000000000
                                  ECCAB       -0.777772651567
                                  Total       -0.999481602263
 @CCENRG-I, Reference   energy    -246.783887133291
            CCSD/QCISD energy     -247.783368735555
          E4T (T(CCSD)) = -0.055103070590
          E5ST          =  0.001209880095
          E4ST          =  0.000000000000
          In other words  
          <T3[2](Dagger) D3  T3[2]> = -0.055103070590
          <T1   (Dagger) Q1 WT3[2]> =  0.001209880095
          <T2   (Dagger) Q2 FT3[2]> =  0.000000000000
        E(CCSD)           =    -247.783368735555
        E(CCSD + T(CCSD)) =    -247.838471806144
        E(CCSD(T))        =    -247.837261926050
  @CHECKOUT-I, Total execution time (CPU/WALL):     1666.43/    2320.60 seconds.
--executable xvcc finished with status     0 in     5922.43 seconds (walltime).
  The final electronic energy is      -247.837261926049763 a.u. 
  This computation required                        12426.32 seconds (walltime).
