 --invoking executable--
/project1/nike/cfour_v2.00beta_May2019xnmol_noLABBASIS/bin/xjoda


   *************************************************************************
         <<<     CCCCCC     CCCCCC   |||     CCCCCC     CCCCCC   >>>
       <<<      CCC        CCC       |||    CCC        CCC         >>>
      <<<      CCC        CCC        |||   CCC        CCC            >>>
    <<<        CCC        CCC        |||   CCC        CCC              >>>
      <<<      CCC        CCC        |||   CCC        CCC            >>>
       <<<      CCC        CCC       |||    CCC        CCC         >>>
         <<<     CCCCCC     CCCCCC   |||     CCCCCC     CCCCCC   >>>
   *************************************************************************

     ****************************************************************
     * CFOUR Coupled-Cluster techniques for Computational Chemistry *
     ****************************************************************
 

   Department of Chemistry                Institut fuer Physikalische Chemie
   University of Texas at Austin          Universitaet Mainz
   Austin, TX  78712, USA                 D-55099 Mainz, Germany
 
                       Version 2.00beta
 
                     wob144                                            
                     Tue Mar 10 00:34:02 EDT 2020                      
                     integer*8 version is running
 
********************************************************************************
*                          Input from ZMAT file                                *
********************************************************************************
TITLE                                                                           
S                                                                               
F 1 R1                                                                          
F 1 R1 2 A1                                                                     
F 1 R2 2 A2 3 D1                                                                
F 1 R2 2 A2 3 D2                                                                
                                                                                
R1=3.11048920113                                                                
R2=2.91962686255                                                                
A1=173.07                                                                       
A2=87.81                                                                        
D1=50.8                                                                         
D2=309.2                                                                        
                                                                                
*ACES2(CALC=CCSD(T)                                                             
UNITS=BOHR                                                                      
#GEOM=1.646*10/5.29177210903_1.545*10/5.29177210903_fromAbstractOfTolles1962JCP_
#COORD=CARTESIAN                                                                
COORD=INTERNAL                                                                  
PRINT=4                                                                         
JODA_PRINT=4                                                                    
INPUT_MRCC=OFF                                                                  
#CC_PROG=MRCC                                                                   
#FROZEN_CORE=ON                                                                 
DROPMO=1>9                                                                      
CONTRACTION=GENERAL                                                             
#CONTRACTION=SEGMENTED                                                          
RELATIVISTIC=OFF                                                                
#EXCITE=EOMEE                                                                   
#ESTATE_CONV=5                                                                  
#ESTATE_SYM=2/2/2/2/2/2/2/2                                                     
XFORM_TOL=18                                                                    
SAVE_INTS=ON                                                                    
SCF_EXPORDER=6                                                                  
SCF_EXPSTART=5                                                                  
#SCF_DAMPING=1000                                                               
SCF_EXTRAPOLATION=ON                                                            
SCF_CONV=12                                                                     
SCF_MAXCYC=99999                                                                
CC_CONV=9                                                                       
CC_MAXCYC=999                                                                   
T3_EXTRAPOL=ON                                                                  
REFERENCE=ROHF                                                                  
CHARGE=+1                                                                       
MULT=2                                                                          
ABCDTYPE=STANDARD                                                               
#OCCUPATION=3-2-2-0-1-0-0-0/3-1-1-0-1-0-0-0                                     
MEM=4                                                                           
MEM_UNIT=GB                                                                     
ECP=OFF                                                                         
BASIS=SPECIAL)                                                                  
                                                                                
S:def2-TZVPP                                                                    
F:def2-TZVPP                                                                    
F:def2-TZVPP                                                                    
F:def2-TZVPP                                                                    
F:def2-TZVPP                                                                    
                                                                                
********************************************************************************
  @GTFLGS-W, Keyword #GEOM not known and is ignored.
  @GTFLGS-W, Keyword #COORD not known and is ignored.
  @GTFLGS-W, Keyword #CC_PROG not known and is ignored.
  @GTFLGS-W, Keyword #FROZEN_CORE not known and is ignored.
  @GTFLGS-W, Keyword #CONTRACTION not known and is ignored.
  @GTFLGS-W, Keyword #EXCITE not known and is ignored.
  @GTFLGS-W, Keyword #ESTATE_CONV not known and is ignored.
  @GTFLGS-W, Keyword #ESTATE_SYM not known and is ignored.
  @GTFLGS-W, Keyword #SCF_DAMPING not known and is ignored.
  @GTFLGS-W, Keyword #OCCUPATION not known and is ignored.
    -------------------------------------------------------------------
                    CFOUR Control Parameters 
    -------------------------------------------------------------------
        External           Internal           Value            Units
          Name               Name
    -------------------------------------------------------------------
       ABCDTYPE             IABCDT         STANDARD     [  0]   ***   
       ANHARMONIC           IANHAR         OFF          [  0]   ***   
       ANH_ALGORIT          IANALG         STANDARD     [  0]   ***   
       ANH_DERIVAT          IANDER         SECOND       [  1]   ***   
       ANH_STEPSIZ          ICUBST             50000          x 10-6  
       ANH_SYMMETR          IANHSM         ABELIAN      [  0]   ***   
       AO_LADDERS           IAOLAD         SINGLEPASS   [  1]   ***   
       BASIS                IBASIS         SPECIAL      [  0]   ***   
       BREIT                IBREIT         OFF          [  0]   ***   
       BRUCK_CONV           IBRTOL          10D-  4             ***   
       BRUECKNER            IBRKNR             OFF      [  0]   ***   
       BUFFERSIZE           IBUFFS            600               ***   
       CACHE_RECS           ICHREC             10               ***   
       CALCLEVEL            ICLLVL           CCSD(T)    [ 22]   ***   
       CCORBOPT             ICCORB             OFF      [  0] x 0.01  
       CC_CONV              ICCCNV          10D-  9             ***   
       CC_EXPORDER          ICCEOR              5               ***   
       CC_EXTRAPOL          ICCEXT             DIIS     [  1]   ***   
       CC_MAXCYC            ICCCYC            999              cycles 
       CC_PROGRAM           ICCPRO         VCC          [  0]   ***   
       CHARGE               ICHRGE              1               ***   
       CHOLESKY             ICHOLE         OFF          [  0]   ***   
       CIS_CONV             ICISTL              5               ***   
       COMM_SIZE            IPSIZE            ***               ***   
       CONSTANT             ICONST         OLD          [  1]   ***   
       CONTINUUM            ICONTU         NONE         [  0]   ***   
       CONTRACTION          ICNTYP          GENERAL     [  1]   ***   
       COORDINATES          ICOORD         INTERNAL     [  0]   ***   
       CPHF_CONVER          ICPHFT          10D- 16             ***   
       CPHF_MAXCYC          ICPHFC             64              cycles 
       CUBIC                ICUBIC         OFF          [  0]   ***   
       CURVILINEAR          ICURVY            OFF       [  0]   ***   
       DBOC                 IDBOC          OFF          [  0]   ***   
       DCT                  IDCT           OFF          [  0]   ***   
       DERIV_LEV            IDRLVL            ZERO      [  0]   ***   
       DIAG_MRCC            IEOMST          10D-  0             ***   
       DIFF_TYPE            IDIFTY         RELAXED      [  0]   ***   
       DIRECT               IDIRCT         OFF          [  0]   ***   
       DROPMO               IDRPMO A   1,  2,  3,  4,  5,  6,  7,  8,
                                       9,
                                   B   1,  2,  3,  4,  5,  6,  7,  8,
                                       9,
       ECP                  IECP           OFF          [  0]   ***   
       EIGENVECTOR          IVEC                1               ***   
       EL_ANHARM            IELANH         OFF          [  0]   ***   
       EOMFOLLOW            IEOMSR         ENERGY       [  0]   ***   
       EOM_MRCC             IMRCCE         NEW          [  1]   ***   
       EOM_NONIT            EOMNON         OFF          [  0]   ***   
       EOM_NSING            IEOMSI          10D-  0             ***   
       EOM_NSTATES          IMRCCD         DAVIDSON     [  0]   ***   
       EOM_NTRIP            IEOMTR          10D-  0             ***   
       EOM_ORDER            IEXORD         ENERGY       [  0]   ***   
       ESTATE_CONV          IEXTOL          10D-  5             ***   
       ESTATE_DIAG          IEXDIG         ITERATIVE    [  0]   ***   
       ESTATE_LOCK          IESLOC         ON           [  1]   ***   
       ESTATE_MAXC          IEXMXC             20               ***   
       ESTATE_PROP          IEXPRP         OFF          [  0]   ***   
       EVAL_HESS            IRECAL              0            # of cyc.
       EXCITATION           IEXCIT              0               ***   
       EXCITE               IEXCIT         NONE         [  0]   ***   
       FCGRADNEW            IFCGNW         OFF          [  0]   ***   
       FC_FIELD             IFINFC              0             x 10-6  
       FD_CALTYPE           IFDCAL         GRADONLY     [  0]   ***   
       FD_PROJECT           IFDPRJ         OFF          [  1]   ***   
       FD_STEPSIZE          IDISFD              0            10-4 bohr
       FD_USEGROUP          IFDGRP         FULL         [  0]   ***   
       FILE_RECSIZ          IFLREC              4096           words  
       FINITE_PERT          IFIPER              0             x 10-6  
       FIXGEOM              IFIXGM         OFF          [  0]   ***   
       FOCK                 IFOCK          AO           [  1]   ***   
       FREQ_ALGORI          IVIALG         STANDARD     [  0]   ***   
       FROZEN_CORE          IFROCO         OFF          [  0]   ***   
       FROZEN_VIRT          IFROVI         OFF          [  0]   ***   
       GAMMA_ABCD           IGABCD         STORE        [  0]   ***   
       GAMMA_ABCI           IGABCI         STORE        [  0]   ***   
       GENBAS_1             IGNBS1              0               ***   
       GENBAS_2             IGNBS2              0               ***   
       GENBAS_3             IGNBS3              0               ***   
       GENBAS_4             IGNBS4              0               ***   
       GEO_CONV             ICONTL              5              H/bohr 
       GEO_MAXCYC           IOPTCY             50               ***   
       GEO_MAXSTEP          IMXSTP            300            millibohr
       GEO_METHOD           INR            SINGLE_POINT [  5]   ***   
       GIAO                 IGIAO          OFF          [  1]   ***   
       GIMIC                IGIMIC         OFF          [  0]   ***   
       GRID                 IGRID          OFF          [  0]   ***   
       GRID_ALGO            IGALGO         SERIAL       [  0]   ***   
       GUESS                IGUESS            MOREAD    [  0]   ***   
       HBAR                 IHBAR              OFF      [  0]   ***   
       HESS_TYPE            IHESTP         SCF          [  0]   ***   
       HF2_FILE             IHF2Fl         USE          [  1]   ***   
       HFSTABILITY          ISTABL         OFF          [  0]   ***   
       INCORE               INCORE             OFF      [  0]   ***   
       INPUT_MRCC           IMRCC          OFF          [  0]   ***   
       INTEGRALS            INTTYP             VMOL     [  1]   ***   
       JODA_PRINT           IJPRNT              4               ***   
       LINDEP_TOL           ILINDP              8               ***   
       LINEQ_CONV           IZTACN          10D-  7           cycles  
       LINEQ_EXPOR          ILMAXD              5               ***   
       LINEQ_MAXCY          ILMAXC             50               ***   
       LINEQ_TYPE           ILTYPE         DIIS         [  1]   ***   
       LOCK_ORBOCC          ILOCOC             OFF      [  0]   ***   
       MEMORY_SIZE          IMEMSZ         500000000           words  
       MEM_UNIT             IMEMU          GB           [  3]   ***   
       MRCC                 IMRCCC         OFF          [  0]   ***   
       MULTIPLICTY          IMULTP              2               ***   
       NEGEVAL              IDIE             ABORT      [  0]   ***   
       NEWNORM              INEWNO         OFF          [  0]   ***   
       NON-HF               INONHF              ON      [  1]   ***   
       NTOP_TAMP            ITOPT2             15               ***   
       NUC_MODEL            INUCMO         POINT        [  0]   ***   
       OCCUPATION           IOCCU   ESTIMATED BY SCF 
       OPEN-SHELL           IOPEN          SPIN-ORBITAL [  0]   ***   
       ORBITALS             IORBTP         SEMICANONICAL[  1]   ***   
       PARALLEL             IPARAL         ON           [  1]   ***   
       PARA_INT             IPINTS         ON           [  1]   ***   
       PARA_PRINT           IPPRIN              0               ***   
       PERT_ORB             IPTORB         STANDARD     [  0]   ***   
       POINTS               IGRDFD              0               ***   
       PRINT                IPRNT               4               ***   
       PROPS                IPROPS             OFF      [  0]   ***   
       PROP_INTEGR          IINTYP         INTERNAL     [  0]   ***   
       PSI                  IPSI           OFF          [  0]   ***   
       QUARTIC              IQUART         OFF          [  0]   ***   
       RAMAN_INT            IRAMIN         OFF          [  0]   ***   
       RAMAN_ORB            IRAMRE         UNRELAXED    [  0]   ***   
       RDO                  IRDOFM             OFF      [  0]   ***   
       REFERENCE            IREFNC             ROHF     [  2]   ***   
       RELATIVIST           IRELAT         OFF          [  0]   ***   
       RELAX_DENS           IRDENS             OFF      [  0]   ***   
       RESET_FLAGS          IRESET             OFF      [  0]   ***   
       RESTART_CC           ICCRES         OFF          [  0]   ***   
       ROT_EVEC             ROTVEC              0               ***   
       SAVE_INTS            ISVINT              ON      [  1]   ***   
       SCALE_ON             ISTCRT              0               ***   
       SCF_CONV             ISCFCV          10D- 12             ***   
       SCF_DAMPING          IDAMP               0             x 10-3  
       SCF_EXPORDE          IRPPOR              6               ***   
       SCF_EXPSTAR          IRPPLS              5               ***   
       SCF_EXTRAPO          IRPP                ON      [  1]   ***   
       SCF_MAXCYC           ISCFCY            ***              cycles 
       SCF_NOSTOP           ISCFST         OFF          [  0]   ***   
       SCF_PRINT            ISCFPR              0               ***   
       SD_FIELD             IFINSD              0             x 10-6  
       SEQUENCE             ISEQUE         OFF          [  0]   ***   
       SOPERT               IPERSO         OFF          [  0]   ***   
       SPHERICAL            IDFGHI             ON       [  1]   ***   
       SPINORBIT            ISOCAL         OFF          [  0]   ***   
       SPINROTATIO          ISRCON         OFF          [  0]   ***   
       SPIN_FLIP            ISPFLP         OFF          [  0]   ***   
       SPIN_ORBIT           ISPORB         OFF          [  0]   ***   
       SPIN_SCAL            ISCSMP         OFF          [  0]   ***   
       SUBGROUP             ISUBGP         DEFAULT      [  0]   ***   
       SUBGRPAXIS           ISBXYZ         X            [  0]   ***   
       SYMMETRY             ISYM             ON         [  0]   ***   
       SYM_CHECK            ISYMCK         OVERRIDE     [  1]   ***   
       T3_EXTRAPOL          IT3EXT         ON           [  1]   ***   
       TAMP_SUM             IEVERY              5               ***   
       TESTSUITE            ITESTS         OFF          [  0]   ***   
       THERMOCH             ITHERM         OFF          [  0]   ***   
       TOL_CHOLESK          ITOLCH          10D-  4             ***   
       TRANGRAD             IRESRM         OFF          [  0]   ***   
       TRANS_INV            ITRAIN         USE          [  0]   ***   
       TREAT_PERT           ITREAT         SIMULTANEOUS [  0]   ***   
       UIJ_THRESHO          IUIJTH              1               ***   
       UNITS                IUNITS         BOHR         [  1]   ***   
       UNOS                 IUNOS          OFF          [  0]   ***   
       UPDATE_HESS          IHUPDT         ON           [  1]   ***   
       VIBPHASE             ISETPH         STANDARD     [  0]   ***   
       VIBRATION            IVIB              NO        [  0]   ***   
       VIB_ALGORIT          IGEALG         STANDARD     [  0]   ***   
       VNATORB              IVNORB         OFF          [  0]   ***   
       VTRAN                IVTRAN         FULL/PARTIAL [  0]   ***   
       XFIELD               IXEFLD              0             x 10-6  
       XFORM_TOL            IXFTOL          10D- 18             ***   
       YFIELD               IYEFLD              0             x 10-6  
       ZFIELD               IZEFLD              0             x 10-6  
    -------------------------------------------------------------------
   5 entries found in Z-matrix 
   Job Title : TITLE                                                                           
 Variable names read by FETCHZ
  1           
  2           
  3           
  4 R1        
  5           
  6           
  7 R1        
  8 A1        
  9           
 10 R2        
 11 A2        
 12 D1        
 13 R2        
 14 A2        
 15 D2        
 Atomic symbols read by FETCHZ
  1 S    
  2 F    
  3 F    
  4 F    
  5 F    
 Connectivity matrix read by FETCHZ
  1   0
  2   0
  3   0
  4   1
  5   0
  6   0
  7   1
  8   2
  9   0
 10   1
 11   2
 12   3
 13   1
 14   2
 15   3
   There are  6 unique internal coordinates.
   Of these,  0 will be optimized.
   User supplied Z-matrix: 
--------------------------------------------------------------------------------
       SYMBOL    BOND      LENGTH    ANGLE     ANGLE     DIHED     ANGLE
                  TO      (ANGST)    WRT      (DEG)      WRT      (DEG)
--------------------------------------------------------------------------------
        S    
        F          1         R1   
        F          1         R1         2        A1   
        F          1         R2         2        A2         3        D1   
        F          1         R2         2        A2         3        D2   
                  *Initial values for internal coordinates* 
                      Name             Value
                        R1              3.1104892011
                        A1            173.0700000000
                        R2              2.9196268625
                        A2             87.8100000000
                        D1             50.8000000000
                        D2            309.2000000000
--------------------------------------------------------------------------------
  1  S         16    31.97207
  2  F          9    18.99840
  3  F          9    18.99840
  4  F          9    18.99840
  5  F          9    18.99840
@GMETRY-W, Internal coordinate # 15 not within bounds:
   Value was:    5.39656 and has been changed to   -0.88663.
   31.9720707000
   18.9984032200
   18.9984032200
   18.9984032200
   18.9984032200
 After translation to center of mass coordinates 
       -0.714986693386    0.000000000000   -0.043263621675
       -0.714986693386    0.000000000000    3.067225579455
       -0.339685552237    0.000000000000   -3.131028529144
        1.128955239055   -2.260896183153    0.068305259807
        1.128955239055    2.260896183153    0.068305259807
  Inertia tensor (amu*bohr**2)
  559.44592    0.00000   17.53888
    0.00000  441.89649    0.00000
   17.53888    0.00000  270.90345
    Inertia tensor:
      559.445915856173    0.000000000000   17.538883464069
        0.000000000000  441.896493988891    0.000000000000
       17.538883464069    0.000000000000  270.903447276448
    Principal axis orientation for molecular system: 
        0.000036956272    0.000000000000   -0.716294430604
        3.104837642659    0.000000000000   -0.528263134917
       -3.104768217283    0.000000000000   -0.528337242357
       -0.000065809211   -2.260896183153    1.131019688589
       -0.000065809211    2.260896183153    1.131019688589
    Diagonalized inertia tensor:
      269.841266700057    0.000000000000    0.000000000000
        0.000000000000  441.896493988891    0.000000000000
        0.000000000000    0.000000000000  560.508096432564
    Eigenvectors of inertia tensor: 
       -0.060450714832    0.000000000000    0.998171183253
        0.000000000000    1.000000000000    0.000000000000
        0.998171183253    0.000000000000    0.060450714832
 factor:   60.1997200000000     
   Rotational constants (in cm-1): 
          0.1074020525             0.1362303635             0.2230930826
   Rotational constants (in MHz): 
       3219.8329824253          4084.0841245854          6688.1632964467
  @SYMMETRY-I, Handedness of inertial frame:-1.00000
  @SYMMETRY-I, Sense of inertial frame y-axis will be changed.
  @SYMMETRY-I, The symmetry group is 1-fold degenerate.
  @SYMMETRY-I, The molecule belongs to an Abelian group.
   Principal axis orientation for molecule:
        0.000036956272    0.000000000000   -0.716294430604
        3.104837642659    0.000000000000   -0.528263134917
       -3.104768217283    0.000000000000   -0.528337242357
       -0.000065809211    2.260896183153    1.131019688589
       -0.000065809211   -2.260896183153    1.131019688589
   Reflection in plane  2 is a valid symmetry operation.
  Symmetry bits:    2   0   0
********************************************************************************
   The full molecular point group is C s .
   The largest Abelian subgroup of the full molecular point group is C s .
   The computational point group is C s .
********************************************************************************
--------------------------------------------------------------------------------
   Analysis of internal coordinates specified by Z-matrix 
--------------------------------------------------------------------------------
   *The nuclear repulsion energy is  299.630441067837126 a.u.
   *There are   6 degrees of freedom within the tot. symm. molecular subspace.
   *Z-matrix requests optimization of   0 coordinates.
   *The optimization is constrained.
   *The following   5 parameters can have non-zero 
    derivatives within the totally symmetric subspace:
             A2   [ 5]  D2   [ 9]  A1   [ 3]  R1   [ 2]  R2   [ 7]
   *The following   0 parameters are to be optimized:

   *The following coordinates must be varied in an  unconstrained optimization.
             A2   [ 5]  D2   [ 9]  A1   [ 3]  R1   [ 2]  R2   [ 7]
--------------------------------------------------------------------------------
 ----------------------------------------------------------------
 Z-matrix   Atomic            Coordinates (in bohr)
  Symbol    Number           X              Y              Z
 ----------------------------------------------------------------
     S        16        -0.71629443     0.00003696     0.00000000
     F         9        -0.52826313     3.10483764     0.00000000
     F         9        -0.52833724    -3.10476822     0.00000000
     F         9         1.13101969    -0.00006581     2.26089618
     F         9         1.13101969    -0.00006581    -2.26089618
 ----------------------------------------------------------------
   Interatomic distance matrix (Angstroms) 
 
                 S             F             F             F             F    
                [ 1]        [ 2]        [ 3]        [ 4]        [ 5]
  S    [ 1]     0.00000
  F    [ 2]     1.64600     0.00000
  F    [ 3]     1.64600     3.28598     0.00000
  F    [ 4]     1.54500     2.21404     2.21398     0.00000
  F    [ 5]     1.54500     2.21404     2.21398     2.39283     0.00000
  Inertia tensor (amu*bohr**2)
  560.50810    0.00000    0.00000
    0.00000  269.84127    0.00000
    0.00000    0.00000  441.89649
   Rotational constants (in cm-1): 
          0.1074020525             0.2230930826             0.1362303635
   Rotational constants (in MHz): 
       3219.8329824253          6688.1632964467          4084.0841245854
  @GTFLGS-W, Keyword #GEOM not known and is ignored.
  @GTFLGS-W, Keyword #COORD not known and is ignored.
  @GTFLGS-W, Keyword #CC_PROG not known and is ignored.
  @GTFLGS-W, Keyword #FROZEN_CORE not known and is ignored.
  @GTFLGS-W, Keyword #CONTRACTION not known and is ignored.
  @GTFLGS-W, Keyword #EXCITE not known and is ignored.
  @GTFLGS-W, Keyword #ESTATE_CONV not known and is ignored.
  @GTFLGS-W, Keyword #ESTATE_SYM not known and is ignored.
  @GTFLGS-W, Keyword #SCF_DAMPING not known and is ignored.
  @GTFLGS-W, Keyword #OCCUPATION not known and is ignored.
  There are  166 basis functions.
 @GEOPT-W, Archive file not created for single-point calculation.
  @CHECKOUT-I, Total execution time (CPU/WALL):        0.26/       0.32 seconds.
--executable xjoda finished with status     0 in        0.35 seconds (walltime).
 --invoking executable--
/project1/nike/cfour_v2.00beta_May2019xnmol_noLABBASIS/bin/xvmol
Running with 1 threads/proc

********************************************************************************
                   INPUT FROM MOL FILE                                          
********************************************************************************
INTGRL        1    0    1    0    0    0    0    0    0
         *** CFOUR Program System (Release V0.1) *** 
TITLE
    4    1 Z          0.10E-08              0    0
   9999.00      3.00
         16.00000000    1    4    1    1    1    1
S #1  -0.716294430603740   0.000036956272141   0.000000000000000
   14    5
   60700.9281040000       5.469594422500000E-004  0.000000000000000E+000
  0.000000000000000E+000  0.000000000000000E+000  0.000000000000000E+000
   9102.61068540000       4.229722455700000E-003  0.000000000000000E+000
  0.000000000000000E+000  0.000000000000000E+000  0.000000000000000E+000
   2071.41660090000       2.174782415900000E-002  0.000000000000000E+000
  0.000000000000000E+000  0.000000000000000E+000  0.000000000000000E+000
   586.024768210000       8.510005358900000E-002  0.000000000000000E+000
  0.000000000000000E+000  0.000000000000000E+000  0.000000000000000E+000
   190.553950210000       0.247991284590000       0.000000000000000E+000
  0.000000000000000E+000  0.000000000000000E+000  0.000000000000000E+000
   67.6303842600000       0.467036404060000       0.000000000000000E+000
  0.000000000000000E+000  0.000000000000000E+000  0.000000000000000E+000
   25.1273069050000       0.364345875500000       0.000000000000000E+000
  0.000000000000000E+000  0.000000000000000E+000  0.000000000000000E+000
   112.574630100000       0.000000000000000E+000  2.167004024000000E-002
  0.000000000000000E+000  0.000000000000000E+000  0.000000000000000E+000
   34.7955542170000       0.000000000000000E+000  9.360230176000001E-002
  0.000000000000000E+000  0.000000000000000E+000  0.000000000000000E+000
   6.51155562150000       0.000000000000000E+000 -0.260680014220000     
  0.000000000000000E+000  0.000000000000000E+000  0.000000000000000E+000
   3.23990322610000       0.000000000000000E+000  0.000000000000000E+000
   1.28420894350000       0.000000000000000E+000  0.000000000000000E+000
   1.54771608810000       0.000000000000000E+000  0.000000000000000E+000
  0.660364165840000       0.000000000000000E+000  0.000000000000000E+000
  0.405410301120000       0.000000000000000E+000  0.000000000000000E+000
  0.000000000000000E+000   1.00000000000000       0.000000000000000E+000
  0.145506510590000       0.000000000000000E+000  0.000000000000000E+000
  0.000000000000000E+000  0.000000000000000E+000   1.00000000000000     
    9    5
   564.367160270000       2.479679631700000E-003  0.000000000000000E+000
  0.000000000000000E+000  0.000000000000000E+000  0.000000000000000E+000
   133.426243790000       1.967793025000000E-002  0.000000000000000E+000
  0.000000000000000E+000  0.000000000000000E+000  0.000000000000000E+000
   42.4682711890000       8.998000825800000E-002  0.000000000000000E+000
  0.000000000000000E+000  0.000000000000000E+000  0.000000000000000E+000
   15.6165275800000       0.257058805750000       0.000000000000000E+000
  0.000000000000000E+000  0.000000000000000E+000  0.000000000000000E+000
   6.10939884690000       0.435151672920000       0.000000000000000E+000
  0.000000000000000E+000  0.000000000000000E+000  0.000000000000000E+000
   2.44041601980000       0.000000000000000E+000  0.348832405950000     
  0.000000000000000E+000  0.000000000000000E+000  0.000000000000000E+000
  0.838822012960000       0.000000000000000E+000  0.000000000000000E+000
   1.00000000000000       0.000000000000000E+000  0.000000000000000E+000
  0.312887469000000       0.000000000000000E+000  0.000000000000000E+000
  0.000000000000000E+000   1.00000000000000       0.000000000000000E+000
  0.107701090040000       0.000000000000000E+000  0.000000000000000E+000
  0.000000000000000E+000  0.000000000000000E+000   1.00000000000000     
    3    3
  0.273000000000000        1.00000000000000       0.000000000000000E+000
  0.000000000000000E+000
   3.75600000000000       0.000000000000000E+000   1.00000000000000     
  0.000000000000000E+000
  0.812000000000000       0.000000000000000E+000  0.000000000000000E+000
   1.00000000000000     
    1    1
  0.557000000000000        1.00000000000000     
          9.00000000    1    4    1    1    1    1
F #2  -0.528263134917089   3.104837642659069   0.000000000000000
   11    5
   35479.1004410000       2.154501488800000E-004  0.000000000000000E+000
  0.000000000000000E+000  0.000000000000000E+000  0.000000000000000E+000
   5318.47289830000       1.670068652700000E-003  0.000000000000000E+000
  0.000000000000000E+000  0.000000000000000E+000  0.000000000000000E+000
   1210.48109750000       8.673321147599999E-003  0.000000000000000E+000
  0.000000000000000E+000  0.000000000000000E+000  0.000000000000000E+000
   342.855181400000       3.504993317500000E-002  0.000000000000000E+000
  0.000000000000000E+000  0.000000000000000E+000  0.000000000000000E+000
   112.019431810000       0.111653201330000       0.000000000000000E+000
  0.000000000000000E+000  0.000000000000000E+000  0.000000000000000E+000
   40.7147402480000       0.259885066470000       0.000000000000000E+000
  0.000000000000000E+000  0.000000000000000E+000  0.000000000000000E+000
   16.0396781110000       0.000000000000000E+000  0.394229668800000     
  0.000000000000000E+000  0.000000000000000E+000  0.000000000000000E+000
   6.50381867400000       0.000000000000000E+000  0.249982385510000     
  0.000000000000000E+000  0.000000000000000E+000  0.000000000000000E+000
   1.54404775090000       0.000000000000000E+000  0.000000000000000E+000
   1.00000000000000       0.000000000000000E+000  0.000000000000000E+000
  0.612234528620000       0.000000000000000E+000  0.000000000000000E+000
  0.000000000000000E+000   1.00000000000000       0.000000000000000E+000
  0.240279796980000       0.000000000000000E+000  0.000000000000000E+000
  0.000000000000000E+000  0.000000000000000E+000   1.00000000000000     
    6    3
   80.2339004830000       6.368599913400000E-003  0.000000000000000E+000
  0.000000000000000E+000
   18.5940107430000       4.430314353000000E-002  0.000000000000000E+000
  0.000000000000000E+000
   5.68679026530000       0.168672487080000       0.000000000000000E+000
  0.000000000000000E+000
   1.95110062940000       0.361663462550000       0.000000000000000E+000
  0.000000000000000E+000
  0.669702112980000       0.000000000000000E+000  0.442029014910000     
  0.000000000000000E+000
  0.216513004100000       0.000000000000000E+000  0.000000000000000E+000
  0.243198757300000     
    2    2
   3.10700000000000        1.00000000000000       0.000000000000000E+000
  0.855000000000000       0.000000000000000E+000   1.00000000000000     
    1    1
   1.91700000000000        1.00000000000000     
          9.00000000    1    4    1    1    1    1
F #3  -0.528337242357173  -3.104768217282679   0.000000000000000
   11    5
   35479.1004410000       2.154501488800000E-004  0.000000000000000E+000
  0.000000000000000E+000  0.000000000000000E+000  0.000000000000000E+000
   5318.47289830000       1.670068652700000E-003  0.000000000000000E+000
  0.000000000000000E+000  0.000000000000000E+000  0.000000000000000E+000
   1210.48109750000       8.673321147599999E-003  0.000000000000000E+000
  0.000000000000000E+000  0.000000000000000E+000  0.000000000000000E+000
   342.855181400000       3.504993317500000E-002  0.000000000000000E+000
  0.000000000000000E+000  0.000000000000000E+000  0.000000000000000E+000
   112.019431810000       0.111653201330000       0.000000000000000E+000
  0.000000000000000E+000  0.000000000000000E+000  0.000000000000000E+000
   40.7147402480000       0.259885066470000       0.000000000000000E+000
  0.000000000000000E+000  0.000000000000000E+000  0.000000000000000E+000
   16.0396781110000       0.000000000000000E+000  0.394229668800000     
  0.000000000000000E+000  0.000000000000000E+000  0.000000000000000E+000
   6.50381867400000       0.000000000000000E+000  0.249982385510000     
  0.000000000000000E+000  0.000000000000000E+000  0.000000000000000E+000
   1.54404775090000       0.000000000000000E+000  0.000000000000000E+000
   1.00000000000000       0.000000000000000E+000  0.000000000000000E+000
  0.612234528620000       0.000000000000000E+000  0.000000000000000E+000
  0.000000000000000E+000   1.00000000000000       0.000000000000000E+000
  0.240279796980000       0.000000000000000E+000  0.000000000000000E+000
  0.000000000000000E+000  0.000000000000000E+000   1.00000000000000     
    6    3
   80.2339004830000       6.368599913400000E-003  0.000000000000000E+000
  0.000000000000000E+000
   18.5940107430000       4.430314353000000E-002  0.000000000000000E+000
  0.000000000000000E+000
   5.68679026530000       0.168672487080000       0.000000000000000E+000
  0.000000000000000E+000
   1.95110062940000       0.361663462550000       0.000000000000000E+000
  0.000000000000000E+000
  0.669702112980000       0.000000000000000E+000  0.442029014910000     
  0.000000000000000E+000
  0.216513004100000       0.000000000000000E+000  0.000000000000000E+000
  0.243198757300000     
    2    2
   3.10700000000000        1.00000000000000       0.000000000000000E+000
  0.855000000000000       0.000000000000000E+000   1.00000000000000     
    1    1
   1.91700000000000        1.00000000000000     
          9.00000000    1    4    1    1    1    1
F #4   1.131019688588849  -0.000065809210677   2.260896183152716
   11    5
   35479.1004410000       2.154501488800000E-004  0.000000000000000E+000
  0.000000000000000E+000  0.000000000000000E+000  0.000000000000000E+000
   5318.47289830000       1.670068652700000E-003  0.000000000000000E+000
  0.000000000000000E+000  0.000000000000000E+000  0.000000000000000E+000
   1210.48109750000       8.673321147599999E-003  0.000000000000000E+000
  0.000000000000000E+000  0.000000000000000E+000  0.000000000000000E+000
   342.855181400000       3.504993317500000E-002  0.000000000000000E+000
  0.000000000000000E+000  0.000000000000000E+000  0.000000000000000E+000
   112.019431810000       0.111653201330000       0.000000000000000E+000
  0.000000000000000E+000  0.000000000000000E+000  0.000000000000000E+000
   40.7147402480000       0.259885066470000       0.000000000000000E+000
  0.000000000000000E+000  0.000000000000000E+000  0.000000000000000E+000
   16.0396781110000       0.000000000000000E+000  0.394229668800000     
  0.000000000000000E+000  0.000000000000000E+000  0.000000000000000E+000
   6.50381867400000       0.000000000000000E+000  0.249982385510000     
  0.000000000000000E+000  0.000000000000000E+000  0.000000000000000E+000
   1.54404775090000       0.000000000000000E+000  0.000000000000000E+000
   1.00000000000000       0.000000000000000E+000  0.000000000000000E+000
  0.612234528620000       0.000000000000000E+000  0.000000000000000E+000
  0.000000000000000E+000   1.00000000000000       0.000000000000000E+000
  0.240279796980000       0.000000000000000E+000  0.000000000000000E+000
  0.000000000000000E+000  0.000000000000000E+000   1.00000000000000     
    6    3
   80.2339004830000       6.368599913400000E-003  0.000000000000000E+000
  0.000000000000000E+000
   18.5940107430000       4.430314353000000E-002  0.000000000000000E+000
  0.000000000000000E+000
   5.68679026530000       0.168672487080000       0.000000000000000E+000
  0.000000000000000E+000
   1.95110062940000       0.361663462550000       0.000000000000000E+000
  0.000000000000000E+000
  0.669702112980000       0.000000000000000E+000  0.442029014910000     
  0.000000000000000E+000
  0.216513004100000       0.000000000000000E+000  0.000000000000000E+000
  0.243198757300000     
    2    2
   3.10700000000000        1.00000000000000       0.000000000000000E+000
  0.855000000000000       0.000000000000000E+000   1.00000000000000     
    1    1
   1.91700000000000        1.00000000000000     
FINISH
                                                                                
********************************************************************************

ONE- AND TWO-ELECTRON INTEGRALS OVER SYMMETRY-ADAPTED AOS ARE CALCULATED.


    BASIS FUNCTION NOT NORMALIZED:
    CENTER (AS ORDERED IN MOL FILE): ?
    ANGULAR MOMENTUM TYPE:           S
    OFFSET WITHIN ANGULAR MOMENTUM:  1
    <CHI|CHI>:                       1.0903803538

    BASIS FUNCTION NOT NORMALIZED:
    CENTER (AS ORDERED IN MOL FILE): ?
    ANGULAR MOMENTUM TYPE:           S
    OFFSET WITHIN ANGULAR MOMENTUM:  2
    <CHI|CHI>:                       0.0465339884

    BASIS FUNCTION NOT NORMALIZED:
    CENTER (AS ORDERED IN MOL FILE): ?
    ANGULAR MOMENTUM TYPE:           S
    OFFSET WITHIN ANGULAR MOMENTUM:  3
    <CHI|CHI>:                       3.6198277538

    BASIS FUNCTION NOT NORMALIZED:
    CENTER (AS ORDERED IN MOL FILE): ?
    ANGULAR MOMENTUM TYPE:           P
    OFFSET WITHIN ANGULAR MOMENTUM:  1
    <CHI|CHI>:                       0.5052028598

    BASIS FUNCTION NOT NORMALIZED:
    CENTER (AS ORDERED IN MOL FILE): ?
    ANGULAR MOMENTUM TYPE:           P
    OFFSET WITHIN ANGULAR MOMENTUM:  2
    <CHI|CHI>:                       0.1216840474

    BASIS FUNCTION NOT NORMALIZED:
    CENTER (AS ORDERED IN MOL FILE): ?
    ANGULAR MOMENTUM TYPE:           S
    OFFSET WITHIN ANGULAR MOMENTUM:  1
    <CHI|CHI>:                       0.1470459150

    BASIS FUNCTION NOT NORMALIZED:
    CENTER (AS ORDERED IN MOL FILE): ?
    ANGULAR MOMENTUM TYPE:           S
    OFFSET WITHIN ANGULAR MOMENTUM:  2
    <CHI|CHI>:                       0.3879183687

    BASIS FUNCTION NOT NORMALIZED:
    CENTER (AS ORDERED IN MOL FILE): ?
    ANGULAR MOMENTUM TYPE:           P
    OFFSET WITHIN ANGULAR MOMENTUM:  1
    <CHI|CHI>:                       0.2671601553

    BASIS FUNCTION NOT NORMALIZED:
    CENTER (AS ORDERED IN MOL FILE): ?
    ANGULAR MOMENTUM TYPE:           P
    OFFSET WITHIN ANGULAR MOMENTUM:  2
    <CHI|CHI>:                       0.1953896500

    BASIS FUNCTION NOT NORMALIZED:
    CENTER (AS ORDERED IN MOL FILE): ?
    ANGULAR MOMENTUM TYPE:           P
    OFFSET WITHIN ANGULAR MOMENTUM:  3
    <CHI|CHI>:                       0.0591456356

    BASIS FUNCTION NOT NORMALIZED:
    CENTER (AS ORDERED IN MOL FILE): ?
    ANGULAR MOMENTUM TYPE:           S
    OFFSET WITHIN ANGULAR MOMENTUM:  1
    <CHI|CHI>:                       0.1470459150

    BASIS FUNCTION NOT NORMALIZED:
    CENTER (AS ORDERED IN MOL FILE): ?
    ANGULAR MOMENTUM TYPE:           S
    OFFSET WITHIN ANGULAR MOMENTUM:  2
    <CHI|CHI>:                       0.3879183687

    BASIS FUNCTION NOT NORMALIZED:
    CENTER (AS ORDERED IN MOL FILE): ?
    ANGULAR MOMENTUM TYPE:           P
    OFFSET WITHIN ANGULAR MOMENTUM:  1
    <CHI|CHI>:                       0.2671601553

    BASIS FUNCTION NOT NORMALIZED:
    CENTER (AS ORDERED IN MOL FILE): ?
    ANGULAR MOMENTUM TYPE:           P
    OFFSET WITHIN ANGULAR MOMENTUM:  2
    <CHI|CHI>:                       0.1953896500

    BASIS FUNCTION NOT NORMALIZED:
    CENTER (AS ORDERED IN MOL FILE): ?
    ANGULAR MOMENTUM TYPE:           P
    OFFSET WITHIN ANGULAR MOMENTUM:  3
    <CHI|CHI>:                       0.0591456356

    BASIS FUNCTION NOT NORMALIZED:
    CENTER (AS ORDERED IN MOL FILE): ?
    ANGULAR MOMENTUM TYPE:           S
    OFFSET WITHIN ANGULAR MOMENTUM:  1
    <CHI|CHI>:                       0.1470459150

    BASIS FUNCTION NOT NORMALIZED:
    CENTER (AS ORDERED IN MOL FILE): ?
    ANGULAR MOMENTUM TYPE:           S
    OFFSET WITHIN ANGULAR MOMENTUM:  2
    <CHI|CHI>:                       0.3879183687

    BASIS FUNCTION NOT NORMALIZED:
    CENTER (AS ORDERED IN MOL FILE): ?
    ANGULAR MOMENTUM TYPE:           P
    OFFSET WITHIN ANGULAR MOMENTUM:  1
    <CHI|CHI>:                       0.2671601553

    BASIS FUNCTION NOT NORMALIZED:
    CENTER (AS ORDERED IN MOL FILE): ?
    ANGULAR MOMENTUM TYPE:           P
    OFFSET WITHIN ANGULAR MOMENTUM:  2
    <CHI|CHI>:                       0.1953896500

    BASIS FUNCTION NOT NORMALIZED:
    CENTER (AS ORDERED IN MOL FILE): ?
    ANGULAR MOMENTUM TYPE:           P
    OFFSET WITHIN ANGULAR MOMENTUM:  3
    <CHI|CHI>:                       0.0591456356
CARTESIAN GAUSSIANS ARE USED.

4 TYPES OF ATOMS
1 SYMMETRY OPERATIONS

REFLECTION IN THE XY-PLANE

INTEGRALS LESS THAN 1e-14 ARE NEGLECTED.

ATOMIC TYPE NUMBER 1:
---------------------

    NUCLEAR CHARGE:                       16
    NUMBER OF SYMMETRY INDEPENDENT ATOMS: 1
    HIGHEST ORBITAL TYPE:                 F

    1 GROUPS OF CGTOS OF S TYPE
    1 GROUPS OF CGTOS OF P TYPE
    1 GROUPS OF CGTOS OF D TYPE
    1 GROUPS OF CGTOS OF F TYPE

    NUCLEAR COORDINATES (IN A.U.) ARE:

    S #1  -0.716294430603740   0.000036956272141   0.000000000000000

ATOMIC TYPE NUMBER 2:
---------------------

    NUCLEAR CHARGE:                       9
    NUMBER OF SYMMETRY INDEPENDENT ATOMS: 1
    HIGHEST ORBITAL TYPE:                 F

    1 GROUPS OF CGTOS OF S TYPE
    1 GROUPS OF CGTOS OF P TYPE
    1 GROUPS OF CGTOS OF D TYPE
    1 GROUPS OF CGTOS OF F TYPE

    NUCLEAR COORDINATES (IN A.U.) ARE:

    F #2  -0.528263134917089   3.104837642659069   0.000000000000000

ATOMIC TYPE NUMBER 3:
---------------------

    NUCLEAR CHARGE:                       9
    NUMBER OF SYMMETRY INDEPENDENT ATOMS: 1
    HIGHEST ORBITAL TYPE:                 F

    1 GROUPS OF CGTOS OF S TYPE
    1 GROUPS OF CGTOS OF P TYPE
    1 GROUPS OF CGTOS OF D TYPE
    1 GROUPS OF CGTOS OF F TYPE

    NUCLEAR COORDINATES (IN A.U.) ARE:

    F #3  -0.528337242357173  -3.104768217282679   0.000000000000000

ATOMIC TYPE NUMBER 4:
---------------------

    NUCLEAR CHARGE:                       9
    NUMBER OF SYMMETRY INDEPENDENT ATOMS: 1
    HIGHEST ORBITAL TYPE:                 F

    1 GROUPS OF CGTOS OF S TYPE
    1 GROUPS OF CGTOS OF P TYPE
    1 GROUPS OF CGTOS OF D TYPE
    1 GROUPS OF CGTOS OF F TYPE

    NUCLEAR COORDINATES (IN A.U.) ARE:

    F #4   1.131019688588849  -0.000065809210677   2.260896183152716

INTERNUCLEAR DISTANCES (A):

    FOR ATOM S #1 (COORDINATES:  -0.71629   0.00004   0.00000)

    F #2 1 DISTANCE IS   1.64600
    F #3 1 DISTANCE IS   1.64600
    F #4 1 DISTANCE IS   1.54500

    FOR ATOM F #2 (COORDINATES:  -0.52826   3.10484   0.00000)

    F #3 1 DISTANCE IS   3.28598
    F #4 1 DISTANCE IS   2.21404

    FOR ATOM F #3 (COORDINATES:  -0.52834  -3.10477   0.00000)

    F #4 1 DISTANCE IS   2.21398

    FOR ATOM F #4 (COORDINATES:   1.13102  -0.00007   2.26090)

    F #4 2 DISTANCE IS   2.39283

GROUP MULTIPLICATION TABLE:

    1 2
    2 1

GAUSSIAN BASIS INFORMATION:

ATOM                EXPONENT       COEFFICIENTS

S #1  1  S   
                  1   60700.928104   1.4436859   0.0000000   0.0000000   0.0000000   0.0000000
                  2    9102.610685   2.6903416   0.0000000   0.0000000   0.0000000   0.0000000
                  3    2071.416601   4.5576134   0.0000000   0.0000000   0.0000000   0.0000000
                  4     586.024768   6.9181169   0.0000000   0.0000000   0.0000000   0.0000000
                  5     190.553950   8.6810242   0.0000000   0.0000000   0.0000000   0.0000000
                  6      67.630384   7.5175826   0.0000000   0.0000000   0.0000000   0.0000000
                  7      25.127307   2.7909008   0.0000000   0.0000000   0.0000000   0.0000000
                  8     112.574630   0.0000000   2.4743724   0.0000000   0.0000000   0.0000000
                  9      34.795554   0.0000000   4.4305159   0.0000000   0.0000000   0.0000000
                 10       6.511556   0.0000000  -3.5107205   0.0000000   0.0000000   0.0000000
                 11       3.239903   0.0000000   0.0000000   1.1617184   0.0000000   0.0000000
                 12       1.547716   0.0000000   0.0000000   0.3432560   0.0000000   0.0000000
                 13       0.405410   0.0000000   0.0000000   0.0000000   0.3621022   0.0000000
                 14       0.145507   0.0000000   0.0000000   0.0000000   0.0000000   0.1679082

S #1  1  X   
                 15     564.367160  13.6790183   0.0000000   0.0000000   0.0000000   0.0000000
                 16     133.426244  17.8952669   0.0000000   0.0000000   0.0000000   0.0000000
                 17      42.468271  19.5629319   0.0000000   0.0000000   0.0000000   0.0000000
                 18      15.616528  16.0036949   0.0000000   0.0000000   0.0000000   0.0000000
                 19       6.109399   8.3819669   0.0000000   0.0000000   0.0000000   0.0000000
                 20       2.440416   0.0000000   4.3478036   0.0000000   0.0000000   0.0000000
                 21       0.838822   0.0000000   0.0000000   1.1442670   0.0000000   0.0000000
                 22       0.312887   0.0000000   0.0000000   0.0000000   0.3335610   0.0000000
                 23       0.107701   0.0000000   0.0000000   0.0000000   0.0000000   0.0879458

S #1  1  Y   
                 24     564.367160  13.6790183   0.0000000   0.0000000   0.0000000   0.0000000
                 25     133.426244  17.8952669   0.0000000   0.0000000   0.0000000   0.0000000
                 26      42.468271  19.5629319   0.0000000   0.0000000   0.0000000   0.0000000
                 27      15.616528  16.0036949   0.0000000   0.0000000   0.0000000   0.0000000
                 28       6.109399   8.3819669   0.0000000   0.0000000   0.0000000   0.0000000
                 29       2.440416   0.0000000   4.3478036   0.0000000   0.0000000   0.0000000
                 30       0.838822   0.0000000   0.0000000   1.1442670   0.0000000   0.0000000
                 31       0.312887   0.0000000   0.0000000   0.0000000   0.3335610   0.0000000
                 32       0.107701   0.0000000   0.0000000   0.0000000   0.0000000   0.0879458

S #1  1  Z   
                 33     564.367160  13.6790183   0.0000000   0.0000000   0.0000000   0.0000000
                 34     133.426244  17.8952669   0.0000000   0.0000000   0.0000000   0.0000000
                 35      42.468271  19.5629319   0.0000000   0.0000000   0.0000000   0.0000000
                 36      15.616528  16.0036949   0.0000000   0.0000000   0.0000000   0.0000000
                 37       6.109399   8.3819669   0.0000000   0.0000000   0.0000000   0.0000000
                 38       2.440416   0.0000000   4.3478036   0.0000000   0.0000000   0.0000000
                 39       0.838822   0.0000000   0.0000000   1.1442670   0.0000000   0.0000000
                 40       0.312887   0.0000000   0.0000000   0.0000000   0.3335610   0.0000000
                 41       0.107701   0.0000000   0.0000000   0.0000000   0.0000000   0.0879458

S #1  1  XX  
                 42       0.273000   0.2939373   0.0000000   0.0000000
                 43       3.756000   0.0000000  28.8894887   0.0000000
                 44       0.812000   0.0000000   0.0000000   1.9801274

S #1  1  XY  
                 45       0.273000   0.2939373   0.0000000   0.0000000
                 46       3.756000   0.0000000  28.8894887   0.0000000
                 47       0.812000   0.0000000   0.0000000   1.9801274

S #1  1  XZ  
                 48       0.273000   0.2939373   0.0000000   0.0000000
                 49       3.756000   0.0000000  28.8894887   0.0000000
                 50       0.812000   0.0000000   0.0000000   1.9801274

S #1  1  YY  
                 51       0.273000   0.2939373   0.0000000   0.0000000
                 52       3.756000   0.0000000  28.8894887   0.0000000
                 53       0.812000   0.0000000   0.0000000   1.9801274

S #1  1  YZ  
                 54       0.273000   0.2939373   0.0000000   0.0000000
                 55       3.756000   0.0000000  28.8894887   0.0000000
                 56       0.812000   0.0000000   0.0000000   1.9801274

S #1  1  ZZ  
                 57       0.273000   0.2939373   0.0000000   0.0000000
                 58       3.756000   0.0000000  28.8894887   0.0000000
                 59       0.812000   0.0000000   0.0000000   1.9801274

S #1  1  F300
                 60       0.557000   1.5281791

S #1  1  F210
                 61       0.557000   1.5281791

S #1  1  F201
                 62       0.557000   1.5281791

S #1  1  F120
                 63       0.557000   1.5281791

S #1  1  F111
                 64       0.557000   1.5281791

S #1  1  F102
                 65       0.557000   1.5281791

S #1  1  F030
                 66       0.557000   1.5281791

S #1  1  F021
                 67       0.557000   1.5281791

S #1  1  F012
                 68       0.557000   1.5281791

S #1  1  F003
                 69       0.557000   1.5281791

F #2  1  S   
                 70   35479.100441   1.0351657   0.0000000   0.0000000   0.0000000   0.0000000
                 71    5318.472898   1.9331170   0.0000000   0.0000000   0.0000000   0.0000000
                 72    1210.481098   3.3081679   0.0000000   0.0000000   0.0000000   0.0000000
                 73     342.855181   5.1904360   0.0000000   0.0000000   0.0000000   0.0000000
                 74     112.019432   7.1453715   0.0000000   0.0000000   0.0000000   0.0000000
                 75      40.714740   7.7853598   0.0000000   0.0000000   0.0000000   0.0000000
                 76      16.039678   0.0000000   3.6156465   0.0000000   0.0000000   0.0000000
                 77       6.503819   0.0000000   1.1649993   0.0000000   0.0000000   0.0000000
                 78       1.544048   0.0000000   0.0000000   0.9872011   0.0000000   0.0000000
                 79       0.612235   0.0000000   0.0000000   0.0000000   0.4932856   0.0000000
                 80       0.240280   0.0000000   0.0000000   0.0000000   0.0000000   0.2445953

F #2  1  X   
                 81      80.233900   4.2174078   0.0000000   0.0000000
                 82      18.594011   4.7174264   0.0000000   0.0000000
                 83       5.686790   4.0849101   0.0000000   0.0000000
                 84       1.951101   2.2998974   0.0000000   0.0000000
                 85       0.669702   0.0000000   0.8635593   0.0000000
                 86       0.216513   0.0000000   0.0000000   0.2105208

F #2  1  Y   
                 87      80.233900   4.2174078   0.0000000   0.0000000
                 88      18.594011   4.7174264   0.0000000   0.0000000
                 89       5.686790   4.0849101   0.0000000   0.0000000
                 90       1.951101   2.2998974   0.0000000   0.0000000
                 91       0.669702   0.0000000   0.8635593   0.0000000
                 92       0.216513   0.0000000   0.0000000   0.2105208

F #2  1  Z   
                 93      80.233900   4.2174078   0.0000000   0.0000000
                 94      18.594011   4.7174264   0.0000000   0.0000000
                 95       5.686790   4.0849101   0.0000000   0.0000000
                 96       1.951101   2.2998974   0.0000000   0.0000000
                 97       0.669702   0.0000000   0.8635593   0.0000000
                 98       0.216513   0.0000000   0.0000000   0.2105208

F #2  1  XX  
                 99       3.107000  20.7284714   0.0000000
                100       0.855000   0.0000000   2.1672588

F #2  1  XY  
                101       3.107000  20.7284714   0.0000000
                102       0.855000   0.0000000   2.1672588

F #2  1  XZ  
                103       3.107000  20.7284714   0.0000000
                104       0.855000   0.0000000   2.1672588

F #2  1  YY  
                105       3.107000  20.7284714   0.0000000
                106       0.855000   0.0000000   2.1672588

F #2  1  YZ  
                107       3.107000  20.7284714   0.0000000
                108       0.855000   0.0000000   2.1672588

F #2  1  ZZ  
                109       3.107000  20.7284714   0.0000000
                110       0.855000   0.0000000   2.1672588

F #2  1  F300
                111       1.917000  24.6547063

F #2  1  F210
                112       1.917000  24.6547063

F #2  1  F201
                113       1.917000  24.6547063

F #2  1  F120
                114       1.917000  24.6547063

F #2  1  F111
                115       1.917000  24.6547063

F #2  1  F102
                116       1.917000  24.6547063

F #2  1  F030
                117       1.917000  24.6547063

F #2  1  F021
                118       1.917000  24.6547063

F #2  1  F012
                119       1.917000  24.6547063

F #2  1  F003
                120       1.917000  24.6547063

F #3  1  S   
                121   35479.100441   1.0351657   0.0000000   0.0000000   0.0000000   0.0000000
                122    5318.472898   1.9331170   0.0000000   0.0000000   0.0000000   0.0000000
                123    1210.481098   3.3081679   0.0000000   0.0000000   0.0000000   0.0000000
                124     342.855181   5.1904360   0.0000000   0.0000000   0.0000000   0.0000000
                125     112.019432   7.1453715   0.0000000   0.0000000   0.0000000   0.0000000
                126      40.714740   7.7853598   0.0000000   0.0000000   0.0000000   0.0000000
                127      16.039678   0.0000000   3.6156465   0.0000000   0.0000000   0.0000000
                128       6.503819   0.0000000   1.1649993   0.0000000   0.0000000   0.0000000
                129       1.544048   0.0000000   0.0000000   0.9872011   0.0000000   0.0000000
                130       0.612235   0.0000000   0.0000000   0.0000000   0.4932856   0.0000000
                131       0.240280   0.0000000   0.0000000   0.0000000   0.0000000   0.2445953

F #3  1  X   
                132      80.233900   4.2174078   0.0000000   0.0000000
                133      18.594011   4.7174264   0.0000000   0.0000000
                134       5.686790   4.0849101   0.0000000   0.0000000
                135       1.951101   2.2998974   0.0000000   0.0000000
                136       0.669702   0.0000000   0.8635593   0.0000000
                137       0.216513   0.0000000   0.0000000   0.2105208

F #3  1  Y   
                138      80.233900   4.2174078   0.0000000   0.0000000
                139      18.594011   4.7174264   0.0000000   0.0000000
                140       5.686790   4.0849101   0.0000000   0.0000000
                141       1.951101   2.2998974   0.0000000   0.0000000
                142       0.669702   0.0000000   0.8635593   0.0000000
                143       0.216513   0.0000000   0.0000000   0.2105208

F #3  1  Z   
                144      80.233900   4.2174078   0.0000000   0.0000000
                145      18.594011   4.7174264   0.0000000   0.0000000
                146       5.686790   4.0849101   0.0000000   0.0000000
                147       1.951101   2.2998974   0.0000000   0.0000000
                148       0.669702   0.0000000   0.8635593   0.0000000
                149       0.216513   0.0000000   0.0000000   0.2105208

F #3  1  XX  
                150       3.107000  20.7284714   0.0000000
                151       0.855000   0.0000000   2.1672588

F #3  1  XY  
                152       3.107000  20.7284714   0.0000000
                153       0.855000   0.0000000   2.1672588

F #3  1  XZ  
                154       3.107000  20.7284714   0.0000000
                155       0.855000   0.0000000   2.1672588

F #3  1  YY  
                156       3.107000  20.7284714   0.0000000
                157       0.855000   0.0000000   2.1672588

F #3  1  YZ  
                158       3.107000  20.7284714   0.0000000
                159       0.855000   0.0000000   2.1672588

F #3  1  ZZ  
                160       3.107000  20.7284714   0.0000000
                161       0.855000   0.0000000   2.1672588

F #3  1  F300
                162       1.917000  24.6547063

F #3  1  F210
                163       1.917000  24.6547063

F #3  1  F201
                164       1.917000  24.6547063

F #3  1  F120
                165       1.917000  24.6547063

F #3  1  F111
                166       1.917000  24.6547063

F #3  1  F102
                167       1.917000  24.6547063

F #3  1  F030
                168       1.917000  24.6547063

F #3  1  F021
                169       1.917000  24.6547063

F #3  1  F012
                170       1.917000  24.6547063

F #3  1  F003
                171       1.917000  24.6547063

F #4  1  S   
                172   35479.100441   1.0351657   0.0000000   0.0000000   0.0000000   0.0000000
                173    5318.472898   1.9331170   0.0000000   0.0000000   0.0000000   0.0000000
                174    1210.481098   3.3081679   0.0000000   0.0000000   0.0000000   0.0000000
                175     342.855181   5.1904360   0.0000000   0.0000000   0.0000000   0.0000000
                176     112.019432   7.1453715   0.0000000   0.0000000   0.0000000   0.0000000
                177      40.714740   7.7853598   0.0000000   0.0000000   0.0000000   0.0000000
                178      16.039678   0.0000000   3.6156465   0.0000000   0.0000000   0.0000000
                179       6.503819   0.0000000   1.1649993   0.0000000   0.0000000   0.0000000
                180       1.544048   0.0000000   0.0000000   0.9872011   0.0000000   0.0000000
                181       0.612235   0.0000000   0.0000000   0.0000000   0.4932856   0.0000000
                182       0.240280   0.0000000   0.0000000   0.0000000   0.0000000   0.2445953

F #4  2  S   
                183   35479.100441   1.0351657   0.0000000   0.0000000   0.0000000   0.0000000
                184    5318.472898   1.9331170   0.0000000   0.0000000   0.0000000   0.0000000
                185    1210.481098   3.3081679   0.0000000   0.0000000   0.0000000   0.0000000
                186     342.855181   5.1904360   0.0000000   0.0000000   0.0000000   0.0000000
                187     112.019432   7.1453715   0.0000000   0.0000000   0.0000000   0.0000000
                188      40.714740   7.7853598   0.0000000   0.0000000   0.0000000   0.0000000
                189      16.039678   0.0000000   3.6156465   0.0000000   0.0000000   0.0000000
                190       6.503819   0.0000000   1.1649993   0.0000000   0.0000000   0.0000000
                191       1.544048   0.0000000   0.0000000   0.9872011   0.0000000   0.0000000
                192       0.612235   0.0000000   0.0000000   0.0000000   0.4932856   0.0000000
                193       0.240280   0.0000000   0.0000000   0.0000000   0.0000000   0.2445953

F #4  1  X   
                194      80.233900   4.2174078   0.0000000   0.0000000
                195      18.594011   4.7174264   0.0000000   0.0000000
                196       5.686790   4.0849101   0.0000000   0.0000000
                197       1.951101   2.2998974   0.0000000   0.0000000
                198       0.669702   0.0000000   0.8635593   0.0000000
                199       0.216513   0.0000000   0.0000000   0.2105208

F #4  2  X   
                200      80.233900   4.2174078   0.0000000   0.0000000
                201      18.594011   4.7174264   0.0000000   0.0000000
                202       5.686790   4.0849101   0.0000000   0.0000000
                203       1.951101   2.2998974   0.0000000   0.0000000
                204       0.669702   0.0000000   0.8635593   0.0000000
                205       0.216513   0.0000000   0.0000000   0.2105208

F #4  1  Y   
                206      80.233900   4.2174078   0.0000000   0.0000000
                207      18.594011   4.7174264   0.0000000   0.0000000
                208       5.686790   4.0849101   0.0000000   0.0000000
                209       1.951101   2.2998974   0.0000000   0.0000000
                210       0.669702   0.0000000   0.8635593   0.0000000
                211       0.216513   0.0000000   0.0000000   0.2105208

F #4  2  Y   
                212      80.233900   4.2174078   0.0000000   0.0000000
                213      18.594011   4.7174264   0.0000000   0.0000000
                214       5.686790   4.0849101   0.0000000   0.0000000
                215       1.951101   2.2998974   0.0000000   0.0000000
                216       0.669702   0.0000000   0.8635593   0.0000000
                217       0.216513   0.0000000   0.0000000   0.2105208

F #4  1  Z   
                218      80.233900   4.2174078   0.0000000   0.0000000
                219      18.594011   4.7174264   0.0000000   0.0000000
                220       5.686790   4.0849101   0.0000000   0.0000000
                221       1.951101   2.2998974   0.0000000   0.0000000
                222       0.669702   0.0000000   0.8635593   0.0000000
                223       0.216513   0.0000000   0.0000000   0.2105208

F #4  2  Z   
                224      80.233900   4.2174078   0.0000000   0.0000000
                225      18.594011   4.7174264   0.0000000   0.0000000
                226       5.686790   4.0849101   0.0000000   0.0000000
                227       1.951101   2.2998974   0.0000000   0.0000000
                228       0.669702   0.0000000   0.8635593   0.0000000
                229       0.216513   0.0000000   0.0000000   0.2105208

F #4  1  XX  
                230       3.107000  20.7284714   0.0000000
                231       0.855000   0.0000000   2.1672588

F #4  2  XX  
                232       3.107000  20.7284714   0.0000000
                233       0.855000   0.0000000   2.1672588

F #4  1  XY  
                234       3.107000  20.7284714   0.0000000
                235       0.855000   0.0000000   2.1672588

F #4  2  XY  
                236       3.107000  20.7284714   0.0000000
                237       0.855000   0.0000000   2.1672588

F #4  1  XZ  
                238       3.107000  20.7284714   0.0000000
                239       0.855000   0.0000000   2.1672588

F #4  2  XZ  
                240       3.107000  20.7284714   0.0000000
                241       0.855000   0.0000000   2.1672588

F #4  1  YY  
                242       3.107000  20.7284714   0.0000000
                243       0.855000   0.0000000   2.1672588

F #4  2  YY  
                244       3.107000  20.7284714   0.0000000
                245       0.855000   0.0000000   2.1672588

F #4  1  YZ  
                246       3.107000  20.7284714   0.0000000
                247       0.855000   0.0000000   2.1672588

F #4  2  YZ  
                248       3.107000  20.7284714   0.0000000
                249       0.855000   0.0000000   2.1672588

F #4  1  ZZ  
                250       3.107000  20.7284714   0.0000000
                251       0.855000   0.0000000   2.1672588

F #4  2  ZZ  
                252       3.107000  20.7284714   0.0000000
                253       0.855000   0.0000000   2.1672588

F #4  1  F300
                254       1.917000  24.6547063

F #4  2  F300
                255       1.917000  24.6547063

F #4  1  F210
                256       1.917000  24.6547063

F #4  2  F210
                257       1.917000  24.6547063

F #4  1  F201
                258       1.917000  24.6547063

F #4  2  F201
                259       1.917000  24.6547063

F #4  1  F120
                260       1.917000  24.6547063

F #4  2  F120
                261       1.917000  24.6547063

F #4  1  F111
                262       1.917000  24.6547063

F #4  2  F111
                263       1.917000  24.6547063

F #4  1  F102
                264       1.917000  24.6547063

F #4  2  F102
                265       1.917000  24.6547063

F #4  1  F030
                266       1.917000  24.6547063

F #4  2  F030
                267       1.917000  24.6547063

F #4  1  F021
                268       1.917000  24.6547063

F #4  2  F021
                269       1.917000  24.6547063

F #4  1  F012
                270       1.917000  24.6547063

F #4  2  F012
                271       1.917000  24.6547063

F #4  1  F003
                272       1.917000  24.6547063

F #4  2  F003
                273       1.917000  24.6547063

SYMMETRY TRANSFORMATION INTO 166 SYMMETRY-ADAPTED BASIS FUNCTIONS

    IRREDUCIBLE REPRESENTATION NUMBER 1

    1    1 S #1 S      1   1.0
    2    2 S #1 S      2   1.0
    3    3 S #1 S      3   1.0
    4    4 S #1 S      4   1.0
    5    5 S #1 S      5   1.0
    6    6 S #1 X      6   1.0
    7    7 S #1 X      7   1.0
    8    8 S #1 X      8   1.0
    9    9 S #1 X      9   1.0
   10   10 S #1 X     10   1.0
   11   11 S #1 Y     11   1.0
   12   12 S #1 Y     12   1.0
   13   13 S #1 Y     13   1.0
   14   14 S #1 Y     14   1.0
   15   15 S #1 Y     15   1.0
   16   16 S #1 XX    21  -1.0  30  -1.0  36   2.0
   17   17 S #1 XX    22  -1.0  31  -1.0  37   2.0
   18   18 S #1 XX    23  -1.0  32  -1.0  38   2.0
   19   19 S #1 XY    24   1.0
   20   20 S #1 XY    25   1.0
   21   21 S #1 XY    26   1.0
   22   22 S #1 YY    21   1.0  30  -1.0
   23   23 S #1 YY    22   1.0  31  -1.0
   24   24 S #1 YY    23   1.0  32  -1.0
   25   25 S #1 ZZ    39  -1.0  42  -1.0  44   4.0
   26   26 S #1 ZZ    40  -1.0  45  -1.0  47   4.0
   27   27 S #1 ZZ    39   1.0  42  -3.0
   28   28 S #1 F300  40   3.0  45  -1.0
   29   29 S #1 F210  49   1.0
   30   30 S #1 F120  50   1.0
   31   31 S #1 F102  51   1.0
   32   32 S #1 F030  52   1.0
   33   33 S #1 F012  53   1.0
   34   34 F #2 S     54   1.0
   35   35 F #2 S     55   1.0
   36   36 F #2 S     56   1.0
   37   37 F #2 S     57   1.0
   38   38 F #2 S     58   1.0
   39   39 F #2 X     59   1.0
   40   40 F #2 X     63  -1.0  69  -1.0  73   2.0
   41   41 F #2 X     64  -1.0  70  -1.0  74   2.0
   42   42 F #2 Y     65   1.0
   43   43 F #2 Y     66   1.0
   44   44 F #2 Y     63   1.0  69  -1.0
   45   45 F #2 XX    64   1.0  70  -1.0
   46   46 F #2 XX    75  -1.0  78  -1.0  80   4.0
   47   47 F #2 XY    76  -1.0  81  -1.0  83   4.0
   48   48 F #2 XY    75   1.0  78  -3.0
   49   49 F #2 YY    76   3.0  81  -1.0
   50   50 F #2 YY    85   1.0
   51   51 F #2 ZZ    86   1.0
   52   52 F #2 ZZ    87   1.0
   53   53 F #2 F300  88   1.0
   54   54 F #2 F210  89   1.0
   55   55 F #2 F120  90   1.0
   56   56 F #2 F102  91   1.0
   57   57 F #2 F030  92   1.0
   58   58 F #2 F012  93   1.0
   59   59 F #3 S     94   1.0
   60   60 F #3 S     95   1.0
   61   61 F #3 S     99  -1.0 105  -1.0 109   2.0
   62   62 F #3 S    100  -1.0 106  -1.0 110   2.0
   63   63 F #3 S    101   1.0
   64   64 F #3 X    102   1.0
   65   65 F #3 X     99   1.0 105  -1.0
   66   66 F #3 X    100   1.0 106  -1.0
   67   67 F #3 Y    111  -1.0 114  -1.0 116   4.0
   68   68 F #3 Y    112  -1.0 117  -1.0 119   4.0
   69   69 F #3 Y    111   1.0 114  -3.0
   70   70 F #3 XX   112   3.0 117  -1.0
   71   71 F #3 XX   121   1.0 122   1.0
   72   72 F #3 XY   123   1.0 124   1.0
   73   73 F #3 XY   125   1.0 126   1.0
   74   74 F #3 YY   127   1.0 128   1.0
   75   75 F #3 YY   129   1.0 130   1.0
   76   76 F #3 ZZ   131   1.0 132   1.0
   77   77 F #3 ZZ   133   1.0 134   1.0
   78   78 F #3 F300 135   1.0 136   1.0
   79   79 F #3 F210 137   1.0 138   1.0
   80   80 F #3 F120 139   1.0 140   1.0
   81   81 F #3 F102 141   1.0 142   1.0
   82   82 F #3 F030 143   1.0 144  -1.0
   83   83 F #3 F012 145   1.0 146  -1.0
   84   84 F #4 S    147   1.0 148  -1.0
   85   85 F #4 S    149  -1.0 150  -1.0 161  -1.0 162  -1.0 169   2.0 170   2.0
   86   86 F #4 S    151  -1.0 152  -1.0 163  -1.0 164  -1.0 171   2.0 172   2.0
   87   87 F #4 S    153   1.0 154   1.0
   88   88 F #4 S    155   1.0 156   1.0
   89   89 F #4 X    157   1.0 158  -1.0
   90   90 F #4 X    159   1.0 160  -1.0
   91   91 F #4 X    149   1.0 150   1.0 161  -1.0 162  -1.0
   92   92 F #4 Y    151   1.0 152   1.0 163  -1.0 164  -1.0
   93   93 F #4 Y    165   1.0 166  -1.0
   94   94 F #4 Y    167   1.0 168  -1.0
   95   95 F #4 Z    173  -1.0 174  -1.0 179  -1.0 180  -1.0 183   4.0 184   4.0
   96   96 F #4 Z    175  -1.0 176  -1.0 185  -1.0 186  -1.0 189   4.0 190   4.0
   97   97 F #4 Z    177  -3.0 178   3.0 187  -3.0 188   3.0 191   2.0 192  -2.0
   98   98 F #4 XX   173   1.0 174   1.0 179  -3.0 180  -3.0
   99   99 F #4 XX   181   1.0 182  -1.0
  100  100 F #4 XY   175   3.0 176   3.0 185  -1.0 186  -1.0
  101  101 F #4 XY   177   1.0 178  -1.0 187  -1.0 188   1.0
  102  102 F #4 XZ    16   1.0
  103  103 F #4 XZ    17   1.0
  104  104 F #4 YY    18   1.0
  105  105 F #4 YY    19   1.0
  106  106 F #4 YZ    20   1.0
  107  107 F #4 YZ    27   1.0
  108  108 F #4 ZZ    28   1.0
  109  109 F #4 ZZ    29   1.0
  110  110 F #4 F300  33   1.0
  111  111 F #4 F210  34   1.0
  112  112 F #4 F201  35   1.0
  113  113 F #4 F120  41  -3.0  46  -3.0  48   2.0
  114  114 F #4 F111  43   1.0
  115  115 F #4 F102  41   1.0  46  -1.0
  116  116 F #4 F030  60   1.0
  117  117 F #4 F021  61   1.0
  118  118 F #4 F012  62   1.0
  119  119 F #4 F003  67   1.0

    IRREDUCIBLE REPRESENTATION NUMBER 2

  120    1 S #1 Z     68   1.0
  121    2 S #1 Z     71   1.0
  122    3 S #1 Z     72   1.0
  123    4 S #1 Z     77  -3.0  82  -3.0  84   2.0
  124    5 S #1 Z     79   1.0
  125    6 S #1 XZ    77   1.0  82  -1.0
  126    7 S #1 XZ    96   1.0
  127    8 S #1 XZ    97   1.0
  128    9 S #1 YZ    98   1.0
  129   10 S #1 YZ   103   1.0
  130   11 S #1 YZ   104   1.0
  131   12 S #1 F201 107   1.0
  132   13 S #1 F111 108   1.0
  133   14 S #1 F021 113  -3.0 118  -3.0 120   2.0
  134   15 S #1 F003 115   1.0
  135   16 F #2 Z    113   1.0 118  -1.0
  136   17 F #2 Z    121   1.0 122  -1.0
  137   18 F #2 Z    123   1.0 124  -1.0
  138   19 F #2 XZ   125   1.0 126  -1.0
  139   20 F #2 XZ   127   1.0 128  -1.0
  140   21 F #2 YZ   129   1.0 130  -1.0
  141   22 F #2 YZ   131   1.0 132  -1.0
  142   23 F #2 F201 133   1.0 134  -1.0
  143   24 F #2 F111 135   1.0 136  -1.0
  144   25 F #2 F021 137   1.0 138  -1.0
  145   26 F #2 F003 139   1.0 140  -1.0
  146   27 F #3 Z    141   1.0 142  -1.0
  147   28 F #3 Z    143   1.0 144   1.0
  148   29 F #3 Z    145   1.0 146   1.0
  149   30 F #3 XZ   147   1.0 148   1.0
  150   31 F #3 XZ   149  -1.0 150   1.0 161  -1.0 162   1.0 169   2.0 170  -2.0
  151   32 F #3 YZ   151  -1.0 152   1.0 163  -1.0 164   1.0 171   2.0 172  -2.0
  152   33 F #3 YZ   153   1.0 154  -1.0
  153   34 F #3 F201 155   1.0 156  -1.0
  154   35 F #3 F111 157   1.0 158   1.0
  155   36 F #3 F021 159   1.0 160   1.0
  156   37 F #3 F003 149   1.0 150  -1.0 161  -1.0 162   1.0
  157   38 F #4 S    151   1.0 152  -1.0 163  -1.0 164   1.0
  158   39 F #4 S    165   1.0 166   1.0
  159   40 F #4 S    167   1.0 168   1.0
  160   41 F #4 S    173  -1.0 174   1.0 179  -1.0 180   1.0 183   4.0 184  -4.0
  161   42 F #4 S    175  -1.0 176   1.0 185  -1.0 186   1.0 189   4.0 190  -4.0
  162   43 F #4 X    177  -3.0 178  -3.0 187  -3.0 188  -3.0 191   2.0 192   2.0
  163   44 F #4 X    173   1.0 174  -1.0 179  -3.0 180   3.0
  164   45 F #4 X    181   1.0 182   1.0
  165   46 F #4 Y    175   3.0 176  -3.0 185  -1.0 186   1.0
  166   47 F #4 Y    177   1.0 178   1.0 187  -1.0 188  -1.0
  167   48 F #4 Y   
  168   49 F #4 Z   
  169   50 F #4 Z   
  170   51 F #4 Z   
  171   52 F #4 XX  
  172   53 F #4 XX  
  173   54 F #4 XY  
  174   55 F #4 XY  
  175   56 F #4 XZ  
  176   57 F #4 XZ  
  177   58 F #4 YY  
  178   59 F #4 YY  
  179   60 F #4 YZ  
  180   61 F #4 YZ  
  181   62 F #4 ZZ  
  182   63 F #4 ZZ  
  183   64 F #4 F300
  184   65 F #4 F210
  185   66 F #4 F201
  186   67 F #4 F120
  187   68 F #4 F111
  188   69 F #4 F102
  189   70 F #4 F030
  190   71 F #4 F021
  191   72 F #4 F012
  192   73 F #4 F003

NUCLEAR REPULSION ENERGY:  299.6304410678 A.U.

One-electron integrals took 0.062865 seconds

  @TWOEL-I,   13524305 INTEGRALS OF SYMMETRY TYPE  I I I I
  @TWOEL-I,   18754615 INTEGRALS OF SYMMETRY TYPE  I J I J
  @TWOEL-I,    9753044 INTEGRALS OF SYMMETRY TYPE  I I J J
  @TWOEL-I, TOTAL NUMBER OF 2-E INTEGRALS   42031964

Two-electron integrals took 31.241544 seconds

Nuclear repulsion energy: 299.630441067837
--executable xvmol finished with status     0 in       33.24 seconds (walltime).
 --invoking executable--
/project1/nike/cfour_v2.00beta_May2019xnmol_noLABBASIS/bin/xvmol2ja
--executable xvmol2ja finished with status     0 in        0.01 seconds (walltime).
 --invoking executable--
/project1/nike/cfour_v2.00beta_May2019xnmol_noLABBASIS/bin/xvscf
  There are  166 functions in the AO basis.

  There are 2 irreducible representations.

       Irrep        # of functions
         1                101
         2                 65


  Parameters for SCF calculation: 
        SCF reference function: ROHF  
  Maximum number of iterations: ****
     Full symmetry point group: C s 
     Computational point group: C s 
        Initial density matrix: CORE                   
     SCF convergence tolerance: 10**(-12)
  DIIS convergence acceleration:  ON
          Latest start for DIIS:   5
                     DIIS order:   6

  Memory information:    1407217 words required.
  Fock matrices are constructed from AO integral file.
 @GETMEM-I,  Allocated      10 MB of main memory.
  Initialization and symmetry analysis required      0.002 seconds.

  @INITGES-I, Occupancies from core Hamiltonian:

          Alpha population by irrep:  18    8
           Beta population by irrep:  18    7


 total no. of electrons in initial guess :  0.000000000000000E+000
 total no. of electrons in initial guess :  0.000000000000000E+000
  --------------------------------------------------------------------
  Iteration         Total Energy            Largest Density Difference
  --------------------------------------------------------------------
       0           299.630441067837126              0.0000000000D+00
   current occupation vector 
    18  8
    18  7
  processed               13524305  ao basis integrals from 
                 22541  buffers.
  processed                9753044  ao basis integrals from 
                 16256  buffers.
  processed               18754615  ao basis integrals from 
                 31258  buffers.
       1          -588.846457955391998              0.2402426433D+01
   current occupation vector 
    18  8
    18  7
  processed               13524305  ao basis integrals from 
                 22541  buffers.
  processed                9753044  ao basis integrals from 
                 16256  buffers.
  processed               18754615  ao basis integrals from 
                 31258  buffers.
       2          -619.325142481624653              0.1876339726D+02
   current occupation vector 
    18  8
    18  7
  processed               13524305  ao basis integrals from 
                 22541  buffers.
  processed                9753044  ao basis integrals from 
                 16256  buffers.
  processed               18754615  ao basis integrals from 
                 31258  buffers.
       3          -597.791215616158297              0.1846639276D+02
   current occupation vector 
    17  9
    16  9
  processed               13524305  ao basis integrals from 
                 22541  buffers.
  processed                9753044  ao basis integrals from 
                 16256  buffers.
  processed               18754615  ao basis integrals from 
                 31258  buffers.
       4          -582.341564849826455              0.1277073512D+02
   current occupation vector 
    18  8
    18  7
 
 sum over diagonal and offdiagdiagonal of C(T)*S*C for irrep
                     1
  1.430411344927052E-012 -7.454875279517918E-013
 reorthoganalization of MOs is carried out
 sum over diagonal and offdiagdiagonal of C(T)*S*C for irrep
                     1
 -3.108624468950438E-015  5.023553439822146E-014
 
 sum over diagonal and offdiagdiagonal of C(T)*S*C for irrep
                     2
  4.853895063661184E-013 -2.536919305277932E-013
 reorthoganalization of MOs is carried out
 sum over diagonal and offdiagdiagonal of C(T)*S*C for irrep
                     2
  8.215650382226158E-015  5.287867415041717E-015
  processed               13524305  ao basis integrals from 
                 22541  buffers.
  processed                9753044  ao basis integrals from 
[...]
        T2        BB    0.0000000000 0.0000000001   10    9   18   17
        T2        AB    0.0000000000 0.0000000002    7    7   18   17
    -------------------------------------------------------------------
   The AA contribution to the correlation energy is:   -0.1464193 a.u.
   The BB contribution to the correlation energy is:   -0.1442462 a.u.
   The AB contribution to the correlation energy is:   -0.9087879 a.u.
   The total correlation energy is -1.199453375010 a.u.
   The total correlation energy is -1.199453375010 a.u.
  Current DIIS expansion coefficients : 
 [   1] 0.9882520321 [   2] 0.0062200187 [   3]-0.0029118510 [   4]-0.1104105904
 [   5] 0.1188503906
  Convergence information after    26 iterations: 
  Largest element of residual vector : -0.20995278E-08.
  Largest element of DIIS residual   : -0.20307788E-08.
  W(mnij) AA contribution =  0.0161411404 a.u.
  W(mnij) BB contribution =  0.0173018789 a.u.
  W(mnij) AB contribution =  0.1587290073 a.u.
  W(abef) AA contribution =  0.0185214933 a.u.
  W(abef) BB contribution =  0.0195690470 a.u.
  W(abef) AB contribution =  0.1838706046 a.u.
  W(mbej) AA contribution =  -0.0244856666 a.u.
  W(mbej) BB contribution =  -0.0269245037 a.u.
  W(mbej) AB contribution = -0.4291196867 a.u.
   After  27 iterations, amplitude changes are:
    -------------------------------------------------------------------
                 Spin      RMS          Max.      Max. change for
     Amplitude   Case     Change       Change       i    j    a    b
    -------------------------------------------------------------------
        T1        AA    0.0000000000-0.0000000004   16       101
        T1        BB    0.0000000000-0.0000000018   10        17
        T2        AA    0.0000000000-0.0000000001   15    8  101   19
        T2        BB    0.0000000000-0.0000000001   10    9   19   17
        T2        AB    0.0000000000 0.0000000002   11    7   18   17
    -------------------------------------------------------------------
   The AA contribution to the correlation energy is:   -0.1464193 a.u.
   The BB contribution to the correlation energy is:   -0.1442462 a.u.
   The AB contribution to the correlation energy is:   -0.9087879 a.u.
   The total correlation energy is -1.199453375223 a.u.
   The total correlation energy is -1.199453375223 a.u.
  Current DIIS expansion coefficients : 
 [   1]-0.1765186760 [   2] 1.4157231555 [   3] 0.0024971979 [   4] 0.0211156006
 [   5]-0.2628172781
  Convergence information after    27 iterations: 
  Largest element of residual vector : -0.17566418E-08.
  Largest element of DIIS residual   : -0.15374050E-08.
  W(mnij) AA contribution =  0.0161411404 a.u.
  W(mnij) BB contribution =  0.0173018789 a.u.
  W(mnij) AB contribution =  0.1587290074 a.u.
  W(abef) AA contribution =  0.0185214933 a.u.
  W(abef) BB contribution =  0.0195690470 a.u.
  W(abef) AB contribution =  0.1838706047 a.u.
  W(mbej) AA contribution =  -0.0244856666 a.u.
  W(mbej) BB contribution =  -0.0269245037 a.u.
  W(mbej) AB contribution = -0.4291196869 a.u.
   After  28 iterations, amplitude changes are:
    -------------------------------------------------------------------
                 Spin      RMS          Max.      Max. change for
     Amplitude   Case     Change       Change       i    j    a    b
    -------------------------------------------------------------------
        T1        AA    0.0000000000-0.0000000002   15       101
        T1        BB    0.0000000000-0.0000000013   10        17
        T2        AA    0.0000000000 0.0000000000   17   11  101   18
        T2        BB    0.0000000000-0.0000000001   10    9   19   17
        T2        AB    0.0000000000 0.0000000001   11    7   18   17
    -------------------------------------------------------------------
   The AA contribution to the correlation energy is:   -0.1464193 a.u.
   The BB contribution to the correlation energy is:   -0.1442462 a.u.
   The AB contribution to the correlation energy is:   -0.9087879 a.u.
   The total correlation energy is -1.199453375283 a.u.
   The total correlation energy is -1.199453375283 a.u.
  Current DIIS expansion coefficients : 
 [   1]-0.3145035501 [   2]-1.1598294929 [   3] 2.1832833832 [   4] 0.0542799152
 [   5] 0.2367697447
  Convergence information after    28 iterations: 
  Largest element of residual vector : -0.13246343E-08.
  Largest element of DIIS residual   : -0.96907366E-09.
  W(mnij) AA contribution =  0.0161411404 a.u.
  W(mnij) BB contribution =  0.0173018789 a.u.
  W(mnij) AB contribution =  0.1587290074 a.u.
  W(abef) AA contribution =  0.0185214933 a.u.
  W(abef) BB contribution =  0.0195690470 a.u.
  W(abef) AB contribution =  0.1838706047 a.u.
  W(mbej) AA contribution =  -0.0244856666 a.u.
  W(mbej) BB contribution =  -0.0269245037 a.u.
  W(mbej) AB contribution = -0.4291196868 a.u.
   After  29 iterations, amplitude changes are:
    -------------------------------------------------------------------
                 Spin      RMS          Max.      Max. change for
     Amplitude   Case     Change       Change       i    j    a    b
    -------------------------------------------------------------------
        T1        AA    0.0000000000-0.0000000001   13       101
        T1        BB    0.0000000000-0.0000000008   10        17
        T2        AA    0.0000000000 0.0000000000   11   10   19   18
        T2        BB    0.0000000000 0.0000000000   10    9   19   17
        T2        AB    0.0000000000 0.0000000001   11    7   18   17
    -------------------------------------------------------------------
   The AA contribution to the correlation energy is:   -0.1464193 a.u.
   The BB contribution to the correlation energy is:   -0.1442462 a.u.
   The AB contribution to the correlation energy is:   -0.9087879 a.u.
   The total correlation energy is -1.199453375258 a.u.
   The total correlation energy is -1.199453375258 a.u.
  Current DIIS expansion coefficients : 
 [   1]-0.0729648572 [   2]-0.5723121113 [   3] 0.4633300411 [   4] 1.0690607470
 [   5] 0.1128861804
  Convergence information after    29 iterations: 
  Largest element of residual vector : -0.84166567E-09.
  Largest element of DIIS residual   : -0.63885283E-09.
  Amplitude equations converged in    29iterations.
   The AA contribution to the correlation energy is:   -0.1464193 a.u.
   The BB contribution to the correlation energy is:   -0.1442462 a.u.
   The AB contribution to the correlation energy is:   -0.9087879 a.u.
   The total correlation energy is -1.199453375276 a.u.
   The total correlation energy is -1.199453375276 a.u.
   The CC iterations have converged.

            ----------------------------------------------
                     Projected spin multiplicities: 
            ----------------------------------------------
             <0|S^2|0>                  =    0.7500000000.
             <0|S^2 (T2+T1**2) |0>      =    0.0000000000.
             <0|S^2 T1|0>               =    0.0000000217.
             Projected <0|S^2 exp(T)|0> =    0.7500000217.
             Approximate spin mult.     =    2.0000000217.
            ----------------------------------------------
   Largest T1 amplitudes for spin case AA:
   i       a                 i       a                 i       a    
-----------------------------------------------------------------------------
[ 13     101    ] 0.04062 [  7      18    ]-0.03948 [ 15     101    ]-0.03815
[ 11      19    ] 0.02824 [  6      19    ]-0.02770 [ 16     101    ]-0.02696
[ 14     103    ] 0.02128 [  7      21    ] 0.01947 [  8      23    ]-0.01716
[  6      20    ]-0.01621 [ 10      18    ]-0.01598 [  5      24    ] 0.01439
[ 11      31    ] 0.01427 [  9      19    ] 0.01334 [  7      28    ] 0.01329
-----------------------------------------------------------------------------
   Norm of T1AA vector (     1255 symmetry allowed elements):  0.1118994670.
-----------------------------------------------------------------------------
   Largest T2 amplitudes for spin case AA:
   i   j   a   b             i   j   a   b             i   j   a   b
-----------------------------------------------------------------------------
[ 17  11 101  18] 0.01292 [ 15   8 101  19]-0.01207 [ 13  11 101  22]-0.01052
[ 15  13  23  19] 0.00942 [ 11   9  24  18]-0.00940 [ 15  11 101  19]-0.00931
[ 16  11 103  18]-0.00914 [ 13  11 101  23] 0.00912 [ 11  10  19  18]-0.00906
[ 17  11 106  18]-0.00843 [ 13   8 101  22]-0.00816 [ 13   5 101  18]-0.00749
[ 16   9 101  19] 0.00725 [ 13   6 101  19] 0.00710 [ 17   9 103  19]-0.00703
-----------------------------------------------------------------------------
   Norm of T2AA vector (   662176 symmetry allowed elements):  0.1617476100.
-----------------------------------------------------------------------------
   Largest T1 amplitudes for spin case BB:
   i       a                 i       a                 i       a    
-----------------------------------------------------------------------------
[  7      17    ] 0.09919 [  6      17    ] 0.08470 [ 14     101    ]-0.03780
[ 10      19    ]-0.03753 [  9      19    ] 0.02600 [  4      17    ] 0.02571
[ 12     101    ] 0.02495 [  6      23    ] 0.02327 [ 13     103    ] 0.02258
[ 15     101    ]-0.02253 [  8      18    ] 0.02129 [  9      24    ]-0.02074
[  4      18    ] 0.02069 [  8      17    ]-0.01906 [  5      19    ] 0.01826
-----------------------------------------------------------------------------
   Norm of T1BB vector (     1182 symmetry allowed elements):  0.1687551919.
-----------------------------------------------------------------------------
   Largest T2 amplitudes for spin case BB:
   i   j   a   b             i   j   a   b             i   j   a   b
-----------------------------------------------------------------------------
[ 10   9  18  17]-0.01754 [  9   7  21  17] 0.01643 [ 16   9 101  17]-0.01578
[  8   7  18  17]-0.01553 [ 15   9 103  17] 0.01411 [  9   7  19  17]-0.01369
[ 10   8  21  17] 0.01351 [ 16   9 106  17] 0.01283 [ 14   8 101  18]-0.01208
[  7   5  21  17]-0.01068 [ 10   8  24  17]-0.01034 [  9   4  19  17]-0.00993
[  9   8  21  17]-0.00986 [ 16   8 103  17]-0.00972 [ 12   6 101  17]-0.00952
-----------------------------------------------------------------------------
   Norm of T2BB vector (   592200 symmetry allowed elements):  0.1729598547.
-----------------------------------------------------------------------------
   Largest T2 amplitudes for spin case AB:
       _       _                 _       _                 _       _
   i   j   a   b             i   j   a   b             i   j   a   b
-----------------------------------------------------------------------------
[ 11   9  18  17] 0.05194 [ 13  12 101 101]-0.02572 [ 11  10  18  17]-0.02483
[ 11   6 101 101]-0.02011 [  7   9  18  19]-0.02008 [ 11   9  21  17]-0.01911
[  9   9  21  17] 0.01909 [  5   9  18  19]-0.01900 [ 13   6 101  17]-0.01889
[  8   9  18  17]-0.01886 [ 17   9 101  17]-0.01879 [ 16   9 103  17] 0.01844
[ 10   9  19  17]-0.01831 [  4   4 101 101]-0.01813 [  4   6 101 101]-0.01791
-----------------------------------------------------------------------------
   Norm of T2AB vector (  2691660 symmetry allowed elements):  0.4509713393.
-----------------------------------------------------------------------------
       Summary of iterative solution of CC equations 
      -----------------------------------------------------------
                       Correlation           Total
       Iteration         Energy              Energy
      -----------------------------------------------------------
            0        -1.203719013462    -796.136768497951  DIIS 
            1        -1.159646473630    -796.092695958119  DIIS 
            2        -1.199726430648    -796.132775915136  DIIS 
            3        -1.194201716836    -796.127251201325  DIIS 
            4        -1.197455061051    -796.130504545540  DIIS 
            5        -1.199083951734    -796.132133436222  DIIS 
            6        -1.199258237671    -796.132307722160  DIIS 
            7        -1.199348527508    -796.132398011997  DIIS 
            8        -1.199405235855    -796.132454720343  DIIS 
            9        -1.199392346327    -796.132441830815  DIIS 
           10        -1.199423033301    -796.132472517790  DIIS 
           11        -1.199437431269    -796.132486915758  DIIS 
           12        -1.199445822008    -796.132495306497  DIIS 
           13        -1.199449749191    -796.132499233680  DIIS 
           14        -1.199450831217    -796.132500315706  DIIS 
           15        -1.199451858617    -796.132501343105  DIIS 
           16        -1.199452531824    -796.132502016313  DIIS 
           17        -1.199453071767    -796.132502556255  DIIS 
           18        -1.199453202315    -796.132502686804  DIIS 
           19        -1.199453318816    -796.132502803305  DIIS 
           20        -1.199453364490    -796.132502848979  DIIS 
           21        -1.199453365059    -796.132502849547  DIIS 
           22        -1.199453369566    -796.132502854054  DIIS 
           23        -1.199453372292    -796.132502856780  DIIS 
           24        -1.199453373127    -796.132502857616  DIIS 
           25        -1.199453374978    -796.132502859467  DIIS 
           26        -1.199453375010    -796.132502859499  DIIS 
           27        -1.199453375223    -796.132502859712  DIIS 
           28        -1.199453375283    -796.132502859772  DIIS 
           29        -1.199453375276    -796.132502859765  DIIS 
      -----------------------------------------------------------
      A miracle has come to pass. The CC iterations have converged.
 @DIMT3-I, Dimensions of T3 amplitudes : 
               # abc          # ijk       Symmetry    Spin 
                   224349            330     1          1
                   223231            350     2          1
                   689583           1096     1          2
                   682347           1080     2          2
                   694722           1020     1          3
                   687078           1020     2          3
                   229348            270     1          4
                   227962            290     2          4
 @DIMT3-I, Dimensions of T3 amplitudes : 
               # abc          # ijk       Symmetry    Spin 
                   224349            330     1          1
                   223231            350     2          1
                   689583           1096     1          2
                   682347           1080     2          2
                   694722           1020     1          3
                   687078           1020     2          3
                   229348            270     1          4
                   227962            290     2          4
 @TRPS-I, Welcome to TRPS. Watch your RUs ! 
 @TRPS-I, Method is CCSD(T) 
 @TRPS-I, Calculation type is energy 
 @TRPS-I, Reference function information : 
          Reference function is general non-HF 
 @TRPS-I, Reference function is ROHF 
 @TRPS-I, INT1 is true 
 @TRPS-I, INT2 is false 
 @TRPS-I, Lengths of ijka integrals. #1     162100
                                     #2     135360
                                     #3     305680
                                     #4     327342
                                    Max     327342
 @INITRP-I, Initializing W intermediate lists. 
 @TSPABCI-I, AbIc/AbcI record transposition. 
 @TSPABCI-I, (O,v) ---> (v,O) transposition. 
 @TSPABCI-I, In-core algorithm is being used. 
 @TSPABCI-I, In-core algorithm is being used. 
 @TRPS-I, Available memory in integer words    499959040
          Number of pre-allocated words for TRPS14       982383
          Number of free words for TRPS14    498976657
 @TRPS14-I, Spin case AAA 
 @TRPS14-I, Number of free integer words  498976657
            Number of free double words   498976657
            Ratio                                 1
 @TRPS14-I, E4TAAA      -0.001324308768
 @TRPS14-I, E5ST A    0.000098528883324
 @TRPS14-I, E4ST A   -0.000009682412459
 @TRPS-I, Available memory in integer words    499959040
          Number of pre-allocated words for TRPS14       982367
          Number of free words for TRPS14    498976673
 @TRPS14-I, Spin case BBB 
 @TRPS14-I, Number of free integer words  498976673
            Number of free double words   498976673
            Ratio                                 1
 @TRPS14-I, E4TBBB      -0.001708281752
 @TRPS14-I, E5ST B    0.000287870472902
 @TRPS14-I, E4ST B    0.000015452103274
 @SETOOOV-I, Some OOOV lists are being transposed. 
 @TRPS-I, Available memory in integer words    499959040
          Number of pre-allocated words for TRPS2       732224
          Number of free words for TRPS2    499226816
 @TRPS2-I, Spin case AAB 
 @TRPS2-I, Number of free integer words  499226816
           Number of free double  words  499226816
           Ratio                                 1
 @TRPS2-I, E4TBAA      -0.023076937626
 @TRPS2-I, E5ST A    0.000908536846116
 @TRPS2-I, E5ST B    0.001112849684392
 @TRPS2-I, E4ST A   -0.000125985367601
 @TRPS2-I, E4ST B    0.000028176933610
 @SETOOOV-I, Some OOOV lists are being transposed. 
 @TSPABCI2-I, (Alpha,Beta) ---> (Beta,Alpha). 
 @TSPABCI2-I, In-core algorithm is being used. 
 @TSPABCI2-I, In-core algorithm is being used. 
 @TSPABCI2-I, In-core algorithm is being used. 
 @TSPABCI2-I, In-core algorithm is being used. 
 @AT2IAB-I, Some AbIj lists are being altered. 
 @TRPS-I, Available memory in integer words    499959040
          Number of pre-allocated words for TRPS3      4663146
          Number of free words for TRPS3    495295894
 @TRPS3-I, Spin case BBA 
 @TRPS3-I, Number of free integer words  495295894
           Number of free double  words  495295894
           Ratio                                 1
 @TRPS3-I, E4TBBA      -0.023700713331
 @TRPS3-I, E5ST A    0.001342537427246
 @TRPS3-I, E5ST B    0.003059258121644
 @TRPS3-I, E4ST A   -0.000178604783359
 @TRPS3-I, E4ST B    0.000115187204702
 @TSPABCI2-I, (Beta,Alpha) ---> (Alpha,Beta). 
 @TSPABCI2-I, In-core algorithm is being used. 
 @TSPABCI2-I, In-core algorithm is being used. 
 @TSPABCI2-I, In-core algorithm is being used. 
 @TSPABCI2-I, In-core algorithm is being used. 
 @AT2IAB-I, Some AbIj lists are being altered. 
 @TSPABCI-I, AbIc/AbcI record transposition. 
 @TSPABCI-I, (v,O) ---> (O,v) transposition. 
 @TSPABCI-I, In-core algorithm is being used. 
 @TSPABCI-I, In-core algorithm is being used. 
 @CCENRG-I, CCSD/QCISD energy will now be evaluated. 
 @CCENRG-I, Correlation energies. ECCAA       -0.146419300917
                                  ECCBB       -0.144246156379
                                  ECCAB       -0.908787917980
                                  Total       -1.199453375276
 @CCENRG-I, Reference   energy    -794.933049484489
            CCSD/QCISD energy     -796.132502859765
          E4T (T(CCSD)) = -0.049810241477
          E5ST          =  0.004401795549
          E4ST          = -0.000063417579
          In other words  
          <T3[2](Dagger) D3  T3[2]> = -0.049810241477
          <T1   (Dagger) Q1 WT3[2]> =  0.004401795549
          <T2   (Dagger) Q2 FT3[2]> = -0.000063417579
        E(CCSD)           =    -796.132502859765
        E(CCSD(T))        =    -796.177974723272
  @CHECKOUT-I, Total execution time (CPU/WALL):     4608.24/    7320.11 seconds.
--executable xvcc finished with status     0 in     7324.29 seconds (walltime).
  The final electronic energy is      -796.177974723271745 a.u. 
  This computation required                         7666.61 seconds (walltime).
--- SharcNET Job Epilogue ---
Job completed successfully.
               jobid: 1968164
               resid: 3436264
         exit status: 0
      allocated time: 7667.72
           user time: 4664.05
         system time: 197.01
peak rss=4294967296; peak vsz=4321746944 (bytes)
atime=7667.72; utime=4664.05; stime=197.01; exit=0
