
 Primary working directories    : .
 Secondary working directories  : .
 Wavefunction directory         : /home/dattani/wfu/
 Main file repository           : /home/dattani/Li2/aug-cc-pCV6Z-koput/./

 SHA1      : c51528690e241e4bfddaa1efad45229768b24895
 NAME      : 2012.1.15
 ARCHNAME  : Linux/x86_64
 FC        : /usr/local/server/IntelStudio_2013_SP1/composer_xe_2013_sp1.2.144/bin/intel64/ifort
 FCVERSION : 14.0.2
 BLASLIB   : -L/usr/local/server/IntelStudio_2013_SP1/composer_xe_2013_sp1.2.144/mkl/lib/intel64 -lmkl_intel_ilp64 -lmkl_sequential -lmkl_core
 id        : fkfmpg

 Nodes     nprocs
 alnode002    1

 Using customized tuning parameters: mindgm=1; mindgv=20; mindgc=4; mindgr=1; noblas=0; minvec=7
 default implementation of scratch files=df  

  ***,Li2 dimer  a-state
 geometry={angstrom;Li1;Li2,Li1,4.1700}                                          !  z-matrix geometry input
 
 basis={
                                                       !Li aCV6Z-koput (16s,9p)/[7s6p]+(1s,1p)+(6d,5f,4g,3h,2i)+(5s,5p,4d,3f,2g,1h)
  s,Li,103207.,15664.8,3600.84,1026.35,335.925,121.409,47.3372,19.6309,8.54706,3.85303,1.78035,0.837931,0.390527,0.0977757,0.0449333,0.0206020
  c,1.11,0.00000377,0.00002873,0.00014941,0.00062719,0.00227375,0.00735768,0.02144965,0.05559888,0.12432832,0.22899372,0.32381094
  c,1.11,0.00000059,0.00000450,0.00002330,0.00009831,0.00035462,0.00115946,0.00337334,0.00897791,0.02042264,0.04070480,0.06462459
  p,Li,32.6443,7.75817,2.46169,0.869615,0.327205,0.134815,0.0599950,0.0281010,0.0133198
  c,1.4,0.00022893,0.00176772,0.00755973,0.02332244
  s,Li,0.0061;p,Li,0.0039
  d,Li,0.8253,0.4373,0.2317,0.1228,0.0650,0.0345
  f,Li,0.6791,0.3588,0.1895,0.1001,0.0529
  g,Li,0.4199,0.2309,0.1270,0.0699
  h,Li,0.3371,0.1835,0.0999
  i,Li,0.2927,0.1462
  s,Li,49.3907,26.3401,14.0472,7.4914,3.9951
  p,Li,51.4577,23.0522,10.3270,4.6263,2.0725
  d,Li,34.9147,15.0047,6.4483,2.7712
  f,Li,23.0476,8.9942,3.5099
  g,Li,15.9134,5.4993
  h,Li,10.2035
  }
 
 memory 5880, M
 
 print basis,orbitals
 
 wf,charge=0,spin=2
 core
 
 {rhf;core}
 {rcisd;core}
 {rmp2;core}
 {rccsd(t);core}
 {uccsd(t);core}
 casscf
 
                                                                                 !{fciqmc;core}

 Variables initialized (781), CPU time= 0.01 sec
 Commands  initialized (547), CPU time= 0.00 sec, 516 directives.
 Default parameters read. Elapsed time= 0.28 sec

 Checking input...
 Passed
1


                                         ***  PROGRAM SYSTEM MOLPRO  ***
                         Copyright, University College Cardiff Consultants Limited, 2008

                                    Version 2012.1 linked Oct 10 2014 10:48:57


 **********************************************************************************************************************************
 LABEL *                                                                                 
 Linux-3.0.101-68-default/alnode002(x86_64) 64 bit serial version                        DATE: 04-Nov-17          TIME: 15:44:24  
 **********************************************************************************************************************************

 SHA1:             c51528690e241e4bfddaa1efad45229768b24895
 **********************************************************************************************************************************

 Variable memory set to    8000000 words,  buffer space   230000 words

 SETTING BASIS          =    USERDEF


 Variable memory set to 5880000000 words,  buffer space   230000 words



 Recomputing integrals since basis changed


 Using spherical harmonics


1PROGRAM * SEWARD (Integral evaluation for generally contracted gaussian basis sets)     Author: Roland Lindh, 1990

 Geometry written to block  1 of record 700

 Orientation using atomic masses  
 Molecule type: Linear
 Symmetry elements: X,Y,Z
 Rotational constants:       8.3743870      8.3743870      0.0000000 GHz  (calculated with average atomic masses)

 Point group  D2h 



 ATOMIC COORDINATES

 NR  ATOM    CHARGE       X              Y              Z

   1  LI1     3.00    0.000000000    0.000000000   -3.940078984
   2  LI2     3.00    0.000000000    0.000000000    3.940078984


 BASIS DATA

   Nr Sym  Nuc  Type         Exponents   Contraction coefficients

    1.1 Ag    1  1s      103207.000000     0.000004    0.000001
    2.1 Ag    2  1s       15664.800000     0.000029    0.000005
                           3600.840000     0.000149    0.000023
                           1026.350000     0.000627    0.000098
                            335.925000     0.002274    0.000355
                            121.409000     0.007358    0.001159
                             47.337200     0.021450    0.003373
                             19.630900     0.055599    0.008978
                              8.547060     0.124328    0.020423
                              3.853030     0.228994    0.040705
                              1.780350     0.323811    0.064625
    3.1 Ag    1  1s           0.837931     1.000000
              2  1s    
    4.1 Ag    1  1s           0.390527     1.000000
              2  1s    
    5.1 Ag    1  1s           0.097776     1.000000
              2  1s    
    6.1 Ag    1  1s           0.044933     1.000000
              2  1s    
    7.1 Ag    1  1s           0.020602     1.000000
              2  1s    
    8.1 Ag    1  1s           0.006100     1.000000
              2  1s    
    9.1 Ag    1  1s          49.390700     1.000000
              2  1s    
   10.1 Ag    1  1s          26.340100     1.000000
              2  1s    
   11.1 Ag    1  1s          14.047200     1.000000
              2  1s    
   12.1 Ag    1  1s           7.491400     1.000000
              2  1s    
   13.1 Ag    1  1s           3.995100     1.000000
              2  1s    
   14.1 Ag    1  2pz         32.644300     0.000229
              2 -2pz          7.758170     0.001768
                              2.461690     0.007560
                              0.869615     0.023322
   15.1 Ag    1  2pz          0.327205     1.000000
              2 -2pz   
   16.1 Ag    1  2pz          0.134815     1.000000
              2 -2pz   
   17.1 Ag    1  2pz          0.059995     1.000000
              2 -2pz   
   18.1 Ag    1  2pz          0.028101     1.000000
              2 -2pz   
   19.1 Ag    1  2pz          0.013320     1.000000
              2 -2pz   
   20.1 Ag    1  2pz          0.003900     1.000000
              2 -2pz   
   21.1 Ag    1  2pz         51.457700     1.000000
              2 -2pz   
   22.1 Ag    1  2pz         23.052200     1.000000
              2 -2pz   
   23.1 Ag    1  2pz         10.327000     1.000000
              2 -2pz   
   24.1 Ag    1  2pz          4.626300     1.000000
              2 -2pz   
   25.1 Ag    1  2pz          2.072500     1.000000
              2 -2pz   
   26.1 Ag    1  3d0          0.825300     1.000000
              2  3d0   
   27.1 Ag    1  3d2+         0.825300     1.000000
              2  3d2+  
   28.1 Ag    1  3d0          0.437300     1.000000
              2  3d0   
   29.1 Ag    1  3d2+         0.437300     1.000000
              2  3d2+  
   30.1 Ag    1  3d0          0.231700     1.000000
              2  3d0   
   31.1 Ag    1  3d2+         0.231700     1.000000
              2  3d2+  
   32.1 Ag    1  3d0          0.122800     1.000000
              2  3d0   
   33.1 Ag    1  3d2+         0.122800     1.000000
              2  3d2+  
   34.1 Ag    1  3d0          0.065000     1.000000
              2  3d0   
   35.1 Ag    1  3d2+         0.065000     1.000000
              2  3d2+  
   36.1 Ag    1  3d0          0.034500     1.000000
              2  3d0   
   37.1 Ag    1  3d2+         0.034500     1.000000
              2  3d2+  
   38.1 Ag    1  3d0         34.914700     1.000000
              2  3d0   
   39.1 Ag    1  3d2+        34.914700     1.000000
              2  3d2+  
   40.1 Ag    1  3d0         15.004700     1.000000
              2  3d0   
   41.1 Ag    1  3d2+        15.004700     1.000000
              2  3d2+  
   42.1 Ag    1  3d0          6.448300     1.000000
              2  3d0   
   43.1 Ag    1  3d2+         6.448300     1.000000
              2  3d2+  
   44.1 Ag    1  3d0          2.771200     1.000000
              2  3d0   
   45.1 Ag    1  3d2+         2.771200     1.000000
              2  3d2+  
   46.1 Ag    1  4f0          0.679100     1.000000
              2 -4f0   
   47.1 Ag    1  4f2+         0.679100     1.000000
              2 -4f2+  
   48.1 Ag    1  4f0          0.358800     1.000000
              2 -4f0   
   49.1 Ag    1  4f2+         0.358800     1.000000
              2 -4f2+  
   50.1 Ag    1  4f0          0.189500     1.000000
              2 -4f0   
   51.1 Ag    1  4f2+         0.189500     1.000000
              2 -4f2+  
   52.1 Ag    1  4f0          0.100100     1.000000
              2 -4f0   
   53.1 Ag    1  4f2+         0.100100     1.000000
              2 -4f2+  
   54.1 Ag    1  4f0          0.052900     1.000000
              2 -4f0   
   55.1 Ag    1  4f2+         0.052900     1.000000
              2 -4f2+  
   56.1 Ag    1  4f0         23.047600     1.000000
              2 -4f0   
   57.1 Ag    1  4f2+        23.047600     1.000000
              2 -4f2+  
   58.1 Ag    1  4f0          8.994200     1.000000
              2 -4f0   
   59.1 Ag    1  4f2+         8.994200     1.000000
              2 -4f2+  
   60.1 Ag    1  4f0          3.509900     1.000000
              2 -4f0   
   61.1 Ag    1  4f2+         3.509900     1.000000
              2 -4f2+  
   62.1 Ag    1  5g0          0.419900     1.000000
              2  5g0   
   63.1 Ag    1  5g4+         0.419900     1.000000
              2  5g4+  
   64.1 Ag    1  5g2+         0.419900     1.000000
              2  5g2+  
   65.1 Ag    1  5g0          0.230900     1.000000
              2  5g0   
   66.1 Ag    1  5g4+         0.230900     1.000000
              2  5g4+  
   67.1 Ag    1  5g2+         0.230900     1.000000
              2  5g2+  
   68.1 Ag    1  5g0          0.127000     1.000000
              2  5g0   
   69.1 Ag    1  5g4+         0.127000     1.000000
              2  5g4+  
   70.1 Ag    1  5g2+         0.127000     1.000000
              2  5g2+  
   71.1 Ag    1  5g0          0.069900     1.000000
              2  5g0   
   72.1 Ag    1  5g4+         0.069900     1.000000
              2  5g4+  
   73.1 Ag    1  5g2+         0.069900     1.000000
              2  5g2+  
   74.1 Ag    1  5g0         15.913400     1.000000
              2  5g0   
   75.1 Ag    1  5g4+        15.913400     1.000000
              2  5g4+  
   76.1 Ag    1  5g2+        15.913400     1.000000
              2  5g2+  
   77.1 Ag    1  5g0          5.499300     1.000000
              2  5g0   
   78.1 Ag    1  5g4+         5.499300     1.000000
              2  5g4+  
   79.1 Ag    1  5g2+         5.499300     1.000000
              2  5g2+  
   80.1 Ag    1  6h2+         0.337100     1.000000
              2 -6h2+  
   81.1 Ag    1  6h4+         0.337100     1.000000
              2 -6h4+  
   82.1 Ag    1  6h0          0.337100     1.000000
              2 -6h0   
   83.1 Ag    1  6h2+         0.183500     1.000000
              2 -6h2+  
   84.1 Ag    1  6h4+         0.183500     1.000000
              2 -6h4+  
   85.1 Ag    1  6h0          0.183500     1.000000
              2 -6h0   
   86.1 Ag    1  6h2+         0.099900     1.000000
              2 -6h2+  
   87.1 Ag    1  6h4+         0.099900     1.000000
              2 -6h4+  
   88.1 Ag    1  6h0          0.099900     1.000000
              2 -6h0   
   89.1 Ag    1  6h2+        10.203500     1.000000
              2 -6h2+  
   90.1 Ag    1  6h4+        10.203500     1.000000
              2 -6h4+  
   91.1 Ag    1  6h0         10.203500     1.000000
              2 -6h0   
   92.1 Ag    1  7i6+         0.292700     1.000000
              2  7i6+  
   93.1 Ag    1  7i4+         0.292700     1.000000
              2  7i4+  
   94.1 Ag    1  7i2+         0.292700     1.000000
              2  7i2+  
   95.1 Ag    1  7i0          0.292700     1.000000
              2  7i0   
   96.1 Ag    1  7i6+         0.146200     1.000000
              2  7i6+  
   97.1 Ag    1  7i4+         0.146200     1.000000
              2  7i4+  
   98.1 Ag    1  7i2+         0.146200     1.000000
              2  7i2+  
   99.1 Ag    1  7i0          0.146200     1.000000
              2  7i0   
    1.2 B3u   1  2px         32.644300     0.000229
              2  2px          7.758170     0.001768
                              2.461690     0.007560
                              0.869615     0.023322
    2.2 B3u   1  2px          0.327205     1.000000
              2  2px   
    3.2 B3u   1  2px          0.134815     1.000000
              2  2px   
    4.2 B3u   1  2px          0.059995     1.000000
              2  2px   
    5.2 B3u   1  2px          0.028101     1.000000
              2  2px   
    6.2 B3u   1  2px          0.013320     1.000000
              2  2px   
    7.2 B3u   1  2px          0.003900     1.000000
              2  2px   
    8.2 B3u   1  2px         51.457700     1.000000
              2  2px   
    9.2 B3u   1  2px         23.052200     1.000000
              2  2px   
   10.2 B3u   1  2px         10.327000     1.000000
              2  2px   
   11.2 B3u   1  2px          4.626300     1.000000
              2  2px   
   12.2 B3u   1  2px          2.072500     1.000000
              2  2px   
   13.2 B3u   1  3d1+         0.825300     1.000000
              2 -3d1+  
   14.2 B3u   1  3d1+         0.437300     1.000000
              2 -3d1+  
   15.2 B3u   1  3d1+         0.231700     1.000000
              2 -3d1+  
   16.2 B3u   1  3d1+         0.122800     1.000000
              2 -3d1+  
   17.2 B3u   1  3d1+         0.065000     1.000000
              2 -3d1+  
   18.2 B3u   1  3d1+         0.034500     1.000000
              2 -3d1+  
   19.2 B3u   1  3d1+        34.914700     1.000000
              2 -3d1+  
   20.2 B3u   1  3d1+        15.004700     1.000000
              2 -3d1+  
   21.2 B3u   1  3d1+         6.448300     1.000000
              2 -3d1+  
   22.2 B3u   1  3d1+         2.771200     1.000000
              2 -3d1+  
   23.2 B3u   1  4f1+         0.679100     1.000000
              2  4f1+  
   24.2 B3u   1  4f3+         0.679100     1.000000
              2  4f3+  
   25.2 B3u   1  4f1+         0.358800     1.000000
              2  4f1+  
   26.2 B3u   1  4f3+         0.358800     1.000000
              2  4f3+  
   27.2 B3u   1  4f1+         0.189500     1.000000
              2  4f1+  
   28.2 B3u   1  4f3+         0.189500     1.000000
              2  4f3+  
   29.2 B3u   1  4f1+         0.100100     1.000000
              2  4f1+  
   30.2 B3u   1  4f3+         0.100100     1.000000
              2  4f3+  
   31.2 B3u   1  4f1+         0.052900     1.000000
              2  4f1+  
   32.2 B3u   1  4f3+         0.052900     1.000000
              2  4f3+  
   33.2 B3u   1  4f1+        23.047600     1.000000
              2  4f1+  
   34.2 B3u   1  4f3+        23.047600     1.000000
              2  4f3+  
   35.2 B3u   1  4f1+         8.994200     1.000000
              2  4f1+  
   36.2 B3u   1  4f3+         8.994200     1.000000
              2  4f3+  
   37.2 B3u   1  4f1+         3.509900     1.000000
              2  4f1+  
   38.2 B3u   1  4f3+         3.509900     1.000000
              2  4f3+  
   39.2 B3u   1  5g1+         0.419900     1.000000
              2 -5g1+  
   40.2 B3u   1  5g3+         0.419900     1.000000
              2 -5g3+  
   41.2 B3u   1  5g1+         0.230900     1.000000
              2 -5g1+  
   42.2 B3u   1  5g3+         0.230900     1.000000
              2 -5g3+  
   43.2 B3u   1  5g1+         0.127000     1.000000
              2 -5g1+  
   44.2 B3u   1  5g3+         0.127000     1.000000
              2 -5g3+  
   45.2 B3u   1  5g1+         0.069900     1.000000
              2 -5g1+  
   46.2 B3u   1  5g3+         0.069900     1.000000
              2 -5g3+  
   47.2 B3u   1  5g1+        15.913400     1.000000
              2 -5g1+  
   48.2 B3u   1  5g3+        15.913400     1.000000
              2 -5g3+  
   49.2 B3u   1  5g1+         5.499300     1.000000
              2 -5g1+  
   50.2 B3u   1  5g3+         5.499300     1.000000
              2 -5g3+  
   51.2 B3u   1  6h1+         0.337100     1.000000
              2  6h1+  
   52.2 B3u   1  6h3+         0.337100     1.000000
              2  6h3+  
   53.2 B3u   1  6h5+         0.337100     1.000000
              2  6h5+  
   54.2 B3u   1  6h1+         0.183500     1.000000
              2  6h1+  
   55.2 B3u   1  6h3+         0.183500     1.000000
              2  6h3+  
   56.2 B3u   1  6h5+         0.183500     1.000000
              2  6h5+  
   57.2 B3u   1  6h1+         0.099900     1.000000
              2  6h1+  
   58.2 B3u   1  6h3+         0.099900     1.000000
              2  6h3+  
   59.2 B3u   1  6h5+         0.099900     1.000000
              2  6h5+  
   60.2 B3u   1  6h1+        10.203500     1.000000
              2  6h1+  
   61.2 B3u   1  6h3+        10.203500     1.000000
              2  6h3+  
   62.2 B3u   1  6h5+        10.203500     1.000000
              2  6h5+  
   63.2 B3u   1  7i5+         0.292700     1.000000
              2 -7i5+  
   64.2 B3u   1  7i3+         0.292700     1.000000
              2 -7i3+  
   65.2 B3u   1  7i1+         0.292700     1.000000
              2 -7i1+  
   66.2 B3u   1  7i5+         0.146200     1.000000
              2 -7i5+  
   67.2 B3u   1  7i3+         0.146200     1.000000
              2 -7i3+  
   68.2 B3u   1  7i1+         0.146200     1.000000
              2 -7i1+  
    1.3 B2u   1  2py         32.644300     0.000229
              2  2py          7.758170     0.001768
                              2.461690     0.007560
                              0.869615     0.023322
    2.3 B2u   1  2py          0.327205     1.000000
              2  2py   
    3.3 B2u   1  2py          0.134815     1.000000
              2  2py   
    4.3 B2u   1  2py          0.059995     1.000000
              2  2py   
    5.3 B2u   1  2py          0.028101     1.000000
              2  2py   
    6.3 B2u   1  2py          0.013320     1.000000
              2  2py   
    7.3 B2u   1  2py          0.003900     1.000000
              2  2py   
    8.3 B2u   1  2py         51.457700     1.000000
              2  2py   
    9.3 B2u   1  2py         23.052200     1.000000
              2  2py   
   10.3 B2u   1  2py         10.327000     1.000000
              2  2py   
   11.3 B2u   1  2py          4.626300     1.000000
              2  2py   
   12.3 B2u   1  2py          2.072500     1.000000
              2  2py   
   13.3 B2u   1  3d1-         0.825300     1.000000
              2 -3d1-  
   14.3 B2u   1  3d1-         0.437300     1.000000
              2 -3d1-  
   15.3 B2u   1  3d1-         0.231700     1.000000
              2 -3d1-  
   16.3 B2u   1  3d1-         0.122800     1.000000
              2 -3d1-  
   17.3 B2u   1  3d1-         0.065000     1.000000
              2 -3d1-  
   18.3 B2u   1  3d1-         0.034500     1.000000
              2 -3d1-  
   19.3 B2u   1  3d1-        34.914700     1.000000
              2 -3d1-  
   20.3 B2u   1  3d1-        15.004700     1.000000
              2 -3d1-  
   21.3 B2u   1  3d1-         6.448300     1.000000
              2 -3d1-  
   22.3 B2u   1  3d1-         2.771200     1.000000
              2 -3d1-  
   23.3 B2u   1  4f1-         0.679100     1.000000
              2  4f1-  
   24.3 B2u   1  4f3-         0.679100     1.000000
              2  4f3-  
   25.3 B2u   1  4f1-         0.358800     1.000000
              2  4f1-  
   26.3 B2u   1  4f3-         0.358800     1.000000
              2  4f3-  
   27.3 B2u   1  4f1-         0.189500     1.000000
              2  4f1-  
   28.3 B2u   1  4f3-         0.189500     1.000000
              2  4f3-  
   29.3 B2u   1  4f1-         0.100100     1.000000
              2  4f1-  
   30.3 B2u   1  4f3-         0.100100     1.000000
              2  4f3-  
   31.3 B2u   1  4f1-         0.052900     1.000000
              2  4f1-  
   32.3 B2u   1  4f3-         0.052900     1.000000
              2  4f3-  
   33.3 B2u   1  4f1-        23.047600     1.000000
              2  4f1-  
   34.3 B2u   1  4f3-        23.047600     1.000000
              2  4f3-  
   35.3 B2u   1  4f1-         8.994200     1.000000
              2  4f1-  
   36.3 B2u   1  4f3-         8.994200     1.000000
              2  4f3-  
   37.3 B2u   1  4f1-         3.509900     1.000000
              2  4f1-  
   38.3 B2u   1  4f3-         3.509900     1.000000
              2  4f3-  
   39.3 B2u   1  5g1-         0.419900     1.000000
              2 -5g1-  
   40.3 B2u   1  5g3-         0.419900     1.000000
              2 -5g3-  
   41.3 B2u   1  5g1-         0.230900     1.000000
              2 -5g1-  
   42.3 B2u   1  5g3-         0.230900     1.000000
              2 -5g3-  
   43.3 B2u   1  5g1-         0.127000     1.000000
              2 -5g1-  
   44.3 B2u   1  5g3-         0.127000     1.000000
              2 -5g3-  
   45.3 B2u   1  5g1-         0.069900     1.000000
              2 -5g1-  
   46.3 B2u   1  5g3-         0.069900     1.000000
              2 -5g3-  
   47.3 B2u   1  5g1-        15.913400     1.000000
              2 -5g1-  
   48.3 B2u   1  5g3-        15.913400     1.000000
              2 -5g3-  
   49.3 B2u   1  5g1-         5.499300     1.000000
              2 -5g1-  
   50.3 B2u   1  5g3-         5.499300     1.000000
              2 -5g3-  
   51.3 B2u   1  6h1-         0.337100     1.000000
              2  6h1-  
   52.3 B2u   1  6h3-         0.337100     1.000000
              2  6h3-  
   53.3 B2u   1  6h5-         0.337100     1.000000
              2  6h5-  
   54.3 B2u   1  6h1-         0.183500     1.000000
              2  6h1-  
   55.3 B2u   1  6h3-         0.183500     1.000000
              2  6h3-  
   56.3 B2u   1  6h5-         0.183500     1.000000
              2  6h5-  
   57.3 B2u   1  6h1-         0.099900     1.000000
              2  6h1-  
   58.3 B2u   1  6h3-         0.099900     1.000000
              2  6h3-  
   59.3 B2u   1  6h5-         0.099900     1.000000
              2  6h5-  
   60.3 B2u   1  6h1-        10.203500     1.000000
              2  6h1-  
   61.3 B2u   1  6h3-        10.203500     1.000000
              2  6h3-  
   62.3 B2u   1  6h5-        10.203500     1.000000
              2  6h5-  
   63.3 B2u   1  7i5-         0.292700     1.000000
              2 -7i5-  
   64.3 B2u   1  7i3-         0.292700     1.000000
              2 -7i3-  
   65.3 B2u   1  7i1-         0.292700     1.000000
              2 -7i1-  
   66.3 B2u   1  7i5-         0.146200     1.000000
              2 -7i5-  
   67.3 B2u   1  7i3-         0.146200     1.000000
              2 -7i3-  
   68.3 B2u   1  7i1-         0.146200     1.000000
              2 -7i1-  
    1.4 B1g   1  3d2-         0.825300     1.000000
              2  3d2-  
    2.4 B1g   1  3d2-         0.437300     1.000000
              2  3d2-  
    3.4 B1g   1  3d2-         0.231700     1.000000
              2  3d2-  
    4.4 B1g   1  3d2-         0.122800     1.000000
              2  3d2-  
    5.4 B1g   1  3d2-         0.065000     1.000000
              2  3d2-  
    6.4 B1g   1  3d2-         0.034500     1.000000
              2  3d2-  
    7.4 B1g   1  3d2-        34.914700     1.000000
              2  3d2-  
    8.4 B1g   1  3d2-        15.004700     1.000000
              2  3d2-  
    9.4 B1g   1  3d2-         6.448300     1.000000
              2  3d2-  
   10.4 B1g   1  3d2-         2.771200     1.000000
              2  3d2-  
   11.4 B1g   1  4f2-         0.679100     1.000000
              2 -4f2-  
   12.4 B1g   1  4f2-         0.358800     1.000000
              2 -4f2-  
   13.4 B1g   1  4f2-         0.189500     1.000000
              2 -4f2-  
   14.4 B1g   1  4f2-         0.100100     1.000000
              2 -4f2-  
   15.4 B1g   1  4f2-         0.052900     1.000000
              2 -4f2-  
   16.4 B1g   1  4f2-        23.047600     1.000000
              2 -4f2-  
   17.4 B1g   1  4f2-         8.994200     1.000000
              2 -4f2-  
   18.4 B1g   1  4f2-         3.509900     1.000000
              2 -4f2-  
   19.4 B1g   1  5g2-         0.419900     1.000000
              2  5g2-  
   20.4 B1g   1  5g4-         0.419900     1.000000
              2  5g4-  
   21.4 B1g   1  5g2-         0.230900     1.000000
              2  5g2-  
   22.4 B1g   1  5g4-         0.230900     1.000000
              2  5g4-  
   23.4 B1g   1  5g2-         0.127000     1.000000
              2  5g2-  
   24.4 B1g   1  5g4-         0.127000     1.000000
              2  5g4-  
   25.4 B1g   1  5g2-         0.069900     1.000000
              2  5g2-  
   26.4 B1g   1  5g4-         0.069900     1.000000
              2  5g4-  
   27.4 B1g   1  5g2-        15.913400     1.000000
              2  5g2-  
   28.4 B1g   1  5g4-        15.913400     1.000000
              2  5g4-  
   29.4 B1g   1  5g2-         5.499300     1.000000
              2  5g2-  
   30.4 B1g   1  5g4-         5.499300     1.000000
              2  5g4-  
   31.4 B1g   1  6h4-         0.337100     1.000000
              2 -6h4-  
   32.4 B1g   1  6h2-         0.337100     1.000000
              2 -6h2-  
   33.4 B1g   1  6h4-         0.183500     1.000000
              2 -6h4-  
   34.4 B1g   1  6h2-         0.183500     1.000000
              2 -6h2-  
   35.4 B1g   1  6h4-         0.099900     1.000000
              2 -6h4-  
   36.4 B1g   1  6h2-         0.099900     1.000000
              2 -6h2-  
   37.4 B1g   1  6h4-        10.203500     1.000000
              2 -6h4-  
   38.4 B1g   1  6h2-        10.203500     1.000000
              2 -6h2-  
   39.4 B1g   1  7i2-         0.292700     1.000000
              2  7i2-  
   40.4 B1g   1  7i6-         0.292700     1.000000
              2  7i6-  
   41.4 B1g   1  7i4-         0.292700     1.000000
              2  7i4-  
   42.4 B1g   1  7i2-         0.146200     1.000000
              2  7i2-  
   43.4 B1g   1  7i6-         0.146200     1.000000
              2  7i6-  
   44.4 B1g   1  7i4-         0.146200     1.000000
              2  7i4-  
    1.5 B1u   1  1s      103207.000000     0.000004    0.000001
    2.5 B1u   2 -1s       15664.800000     0.000029    0.000005
                           3600.840000     0.000149    0.000023
                           1026.350000     0.000627    0.000098
                            335.925000     0.002274    0.000355
                            121.409000     0.007358    0.001159
                             47.337200     0.021450    0.003373
                             19.630900     0.055599    0.008978
                              8.547060     0.124328    0.020423
                              3.853030     0.228994    0.040705
                              1.780350     0.323811    0.064625
    3.5 B1u   1  1s           0.837931     1.000000
              2 -1s    
    4.5 B1u   1  1s           0.390527     1.000000
              2 -1s    
    5.5 B1u   1  1s           0.097776     1.000000
              2 -1s    
    6.5 B1u   1  1s           0.044933     1.000000
              2 -1s    
    7.5 B1u   1  1s           0.020602     1.000000
              2 -1s    
    8.5 B1u   1  1s           0.006100     1.000000
              2 -1s    
    9.5 B1u   1  1s          49.390700     1.000000
              2 -1s    
   10.5 B1u   1  1s          26.340100     1.000000
              2 -1s    
   11.5 B1u   1  1s          14.047200     1.000000
              2 -1s    
   12.5 B1u   1  1s           7.491400     1.000000
              2 -1s    
   13.5 B1u   1  1s           3.995100     1.000000
              2 -1s    
   14.5 B1u   1  2pz         32.644300     0.000229
              2  2pz          7.758170     0.001768
                              2.461690     0.007560
                              0.869615     0.023322
   15.5 B1u   1  2pz          0.327205     1.000000
              2  2pz   
   16.5 B1u   1  2pz          0.134815     1.000000
              2  2pz   
   17.5 B1u   1  2pz          0.059995     1.000000
              2  2pz   
   18.5 B1u   1  2pz          0.028101     1.000000
              2  2pz   
   19.5 B1u   1  2pz          0.013320     1.000000
              2  2pz   
   20.5 B1u   1  2pz          0.003900     1.000000
              2  2pz   
   21.5 B1u   1  2pz         51.457700     1.000000
              2  2pz   
   22.5 B1u   1  2pz         23.052200     1.000000
              2  2pz   
   23.5 B1u   1  2pz         10.327000     1.000000
              2  2pz   
   24.5 B1u   1  2pz          4.626300     1.000000
              2  2pz   
   25.5 B1u   1  2pz          2.072500     1.000000
              2  2pz   
   26.5 B1u   1  3d0          0.825300     1.000000
              2 -3d0   
   27.5 B1u   1  3d2+         0.825300     1.000000
              2 -3d2+  
   28.5 B1u   1  3d0          0.437300     1.000000
              2 -3d0   
   29.5 B1u   1  3d2+         0.437300     1.000000
              2 -3d2+  
   30.5 B1u   1  3d0          0.231700     1.000000
              2 -3d0   
   31.5 B1u   1  3d2+         0.231700     1.000000
              2 -3d2+  
   32.5 B1u   1  3d0          0.122800     1.000000
              2 -3d0   
   33.5 B1u   1  3d2+         0.122800     1.000000
              2 -3d2+  
   34.5 B1u   1  3d0          0.065000     1.000000
              2 -3d0   
   35.5 B1u   1  3d2+         0.065000     1.000000
              2 -3d2+  
   36.5 B1u   1  3d0          0.034500     1.000000
              2 -3d0   
   37.5 B1u   1  3d2+         0.034500     1.000000
              2 -3d2+  
   38.5 B1u   1  3d0         34.914700     1.000000
              2 -3d0   
   39.5 B1u   1  3d2+        34.914700     1.000000
              2 -3d2+  
   40.5 B1u   1  3d0         15.004700     1.000000
              2 -3d0   
   41.5 B1u   1  3d2+        15.004700     1.000000
              2 -3d2+  
   42.5 B1u   1  3d0          6.448300     1.000000
              2 -3d0   
   43.5 B1u   1  3d2+         6.448300     1.000000
              2 -3d2+  
   44.5 B1u   1  3d0          2.771200     1.000000
              2 -3d0   
   45.5 B1u   1  3d2+         2.771200     1.000000
              2 -3d2+  
   46.5 B1u   1  4f0          0.679100     1.000000
              2  4f0   
   47.5 B1u   1  4f2+         0.679100     1.000000
              2  4f2+  
   48.5 B1u   1  4f0          0.358800     1.000000
              2  4f0   
   49.5 B1u   1  4f2+         0.358800     1.000000
              2  4f2+  
   50.5 B1u   1  4f0          0.189500     1.000000
              2  4f0   
   51.5 B1u   1  4f2+         0.189500     1.000000
              2  4f2+  
   52.5 B1u   1  4f0          0.100100     1.000000
              2  4f0   
   53.5 B1u   1  4f2+         0.100100     1.000000
              2  4f2+  
   54.5 B1u   1  4f0          0.052900     1.000000
              2  4f0   
   55.5 B1u   1  4f2+         0.052900     1.000000
              2  4f2+  
   56.5 B1u   1  4f0         23.047600     1.000000
              2  4f0   
   57.5 B1u   1  4f2+        23.047600     1.000000
              2  4f2+  
   58.5 B1u   1  4f0          8.994200     1.000000
              2  4f0   
   59.5 B1u   1  4f2+         8.994200     1.000000
              2  4f2+  
   60.5 B1u   1  4f0          3.509900     1.000000
              2  4f0   
   61.5 B1u   1  4f2+         3.509900     1.000000
              2  4f2+  
   62.5 B1u   1  5g0          0.419900     1.000000
              2 -5g0   
   63.5 B1u   1  5g4+         0.419900     1.000000
              2 -5g4+  
   64.5 B1u   1  5g2+         0.419900     1.000000
              2 -5g2+  
   65.5 B1u   1  5g0          0.230900     1.000000
              2 -5g0   
   66.5 B1u   1  5g4+         0.230900     1.000000
              2 -5g4+  
   67.5 B1u   1  5g2+         0.230900     1.000000
              2 -5g2+  
   68.5 B1u   1  5g0          0.127000     1.000000
              2 -5g0   
   69.5 B1u   1  5g4+         0.127000     1.000000
              2 -5g4+  
   70.5 B1u   1  5g2+         0.127000     1.000000
              2 -5g2+  
   71.5 B1u   1  5g0          0.069900     1.000000
              2 -5g0   
   72.5 B1u   1  5g4+         0.069900     1.000000
              2 -5g4+  
   73.5 B1u   1  5g2+         0.069900     1.000000
              2 -5g2+  
   74.5 B1u   1  5g0         15.913400     1.000000
              2 -5g0   
   75.5 B1u   1  5g4+        15.913400     1.000000
              2 -5g4+  
   76.5 B1u   1  5g2+        15.913400     1.000000
              2 -5g2+  
   77.5 B1u   1  5g0          5.499300     1.000000
              2 -5g0   
   78.5 B1u   1  5g4+         5.499300     1.000000
              2 -5g4+  
   79.5 B1u   1  5g2+         5.499300     1.000000
              2 -5g2+  
   80.5 B1u   1  6h2+         0.337100     1.000000
              2  6h2+  
   81.5 B1u   1  6h4+         0.337100     1.000000
              2  6h4+  
   82.5 B1u   1  6h0          0.337100     1.000000
              2  6h0   
   83.5 B1u   1  6h2+         0.183500     1.000000
              2  6h2+  
   84.5 B1u   1  6h4+         0.183500     1.000000
              2  6h4+  
   85.5 B1u   1  6h0          0.183500     1.000000
              2  6h0   
   86.5 B1u   1  6h2+         0.099900     1.000000
              2  6h2+  
   87.5 B1u   1  6h4+         0.099900     1.000000
              2  6h4+  
   88.5 B1u   1  6h0          0.099900     1.000000
              2  6h0   
   89.5 B1u   1  6h2+        10.203500     1.000000
              2  6h2+  
   90.5 B1u   1  6h4+        10.203500     1.000000
              2  6h4+  
   91.5 B1u   1  6h0         10.203500     1.000000
              2  6h0   
   92.5 B1u   1  7i6+         0.292700     1.000000
              2 -7i6+  
   93.5 B1u   1  7i4+         0.292700     1.000000
              2 -7i4+  
   94.5 B1u   1  7i2+         0.292700     1.000000
              2 -7i2+  
   95.5 B1u   1  7i0          0.292700     1.000000
              2 -7i0   
   96.5 B1u   1  7i6+         0.146200     1.000000
              2 -7i6+  
   97.5 B1u   1  7i4+         0.146200     1.000000
              2 -7i4+  
   98.5 B1u   1  7i2+         0.146200     1.000000
              2 -7i2+  
   99.5 B1u   1  7i0          0.146200     1.000000
              2 -7i0   
    1.6 B2g   1  2px         32.644300     0.000229
              2 -2px          7.758170     0.001768
                              2.461690     0.007560
                              0.869615     0.023322
    2.6 B2g   1  2px          0.327205     1.000000
              2 -2px   
    3.6 B2g   1  2px          0.134815     1.000000
              2 -2px   
    4.6 B2g   1  2px          0.059995     1.000000
              2 -2px   
    5.6 B2g   1  2px          0.028101     1.000000
              2 -2px   
    6.6 B2g   1  2px          0.013320     1.000000
              2 -2px   
    7.6 B2g   1  2px          0.003900     1.000000
              2 -2px   
    8.6 B2g   1  2px         51.457700     1.000000
              2 -2px   
    9.6 B2g   1  2px         23.052200     1.000000
              2 -2px   
   10.6 B2g   1  2px         10.327000     1.000000
              2 -2px   
   11.6 B2g   1  2px          4.626300     1.000000
              2 -2px   
   12.6 B2g   1  2px          2.072500     1.000000
              2 -2px   
   13.6 B2g   1  3d1+         0.825300     1.000000
              2  3d1+  
   14.6 B2g   1  3d1+         0.437300     1.000000
              2  3d1+  
   15.6 B2g   1  3d1+         0.231700     1.000000
              2  3d1+  
   16.6 B2g   1  3d1+         0.122800     1.000000
              2  3d1+  
   17.6 B2g   1  3d1+         0.065000     1.000000
              2  3d1+  
   18.6 B2g   1  3d1+         0.034500     1.000000
              2  3d1+  
   19.6 B2g   1  3d1+        34.914700     1.000000
              2  3d1+  
   20.6 B2g   1  3d1+        15.004700     1.000000
              2  3d1+  
   21.6 B2g   1  3d1+         6.448300     1.000000
              2  3d1+  
   22.6 B2g   1  3d1+         2.771200     1.000000
              2  3d1+  
   23.6 B2g   1  4f1+         0.679100     1.000000
              2 -4f1+  
   24.6 B2g   1  4f3+         0.679100     1.000000
              2 -4f3+  
   25.6 B2g   1  4f1+         0.358800     1.000000
              2 -4f1+  
   26.6 B2g   1  4f3+         0.358800     1.000000
              2 -4f3+  
   27.6 B2g   1  4f1+         0.189500     1.000000
              2 -4f1+  
   28.6 B2g   1  4f3+         0.189500     1.000000
              2 -4f3+  
   29.6 B2g   1  4f1+         0.100100     1.000000
              2 -4f1+  
   30.6 B2g   1  4f3+         0.100100     1.000000
              2 -4f3+  
   31.6 B2g   1  4f1+         0.052900     1.000000
              2 -4f1+  
   32.6 B2g   1  4f3+         0.052900     1.000000
              2 -4f3+  
   33.6 B2g   1  4f1+        23.047600     1.000000
              2 -4f1+  
   34.6 B2g   1  4f3+        23.047600     1.000000
              2 -4f3+  
   35.6 B2g   1  4f1+         8.994200     1.000000
              2 -4f1+  
   36.6 B2g   1  4f3+         8.994200     1.000000
              2 -4f3+  
   37.6 B2g   1  4f1+         3.509900     1.000000
              2 -4f1+  
   38.6 B2g   1  4f3+         3.509900     1.000000
              2 -4f3+  
   39.6 B2g   1  5g1+         0.419900     1.000000
              2  5g1+  
   40.6 B2g   1  5g3+         0.419900     1.000000
              2  5g3+  
   41.6 B2g   1  5g1+         0.230900     1.000000
              2  5g1+  
   42.6 B2g   1  5g3+         0.230900     1.000000
              2  5g3+  
   43.6 B2g   1  5g1+         0.127000     1.000000
              2  5g1+  
   44.6 B2g   1  5g3+         0.127000     1.000000
              2  5g3+  
   45.6 B2g   1  5g1+         0.069900     1.000000
              2  5g1+  
   46.6 B2g   1  5g3+         0.069900     1.000000
              2  5g3+  
   47.6 B2g   1  5g1+        15.913400     1.000000
              2  5g1+  
   48.6 B2g   1  5g3+        15.913400     1.000000
              2  5g3+  
   49.6 B2g   1  5g1+         5.499300     1.000000
              2  5g1+  
   50.6 B2g   1  5g3+         5.499300     1.000000
              2  5g3+  
   51.6 B2g   1  6h1+         0.337100     1.000000
              2 -6h1+  
   52.6 B2g   1  6h3+         0.337100     1.000000
              2 -6h3+  
   53.6 B2g   1  6h5+         0.337100     1.000000
              2 -6h5+  
   54.6 B2g   1  6h1+         0.183500     1.000000
              2 -6h1+  
   55.6 B2g   1  6h3+         0.183500     1.000000
              2 -6h3+  
   56.6 B2g   1  6h5+         0.183500     1.000000
              2 -6h5+  
   57.6 B2g   1  6h1+         0.099900     1.000000
              2 -6h1+  
   58.6 B2g   1  6h3+         0.099900     1.000000
              2 -6h3+  
   59.6 B2g   1  6h5+         0.099900     1.000000
              2 -6h5+  
   60.6 B2g   1  6h1+        10.203500     1.000000
              2 -6h1+  
   61.6 B2g   1  6h3+        10.203500     1.000000
              2 -6h3+  
   62.6 B2g   1  6h5+        10.203500     1.000000
              2 -6h5+  
   63.6 B2g   1  7i5+         0.292700     1.000000
              2  7i5+  
   64.6 B2g   1  7i3+         0.292700     1.000000
              2  7i3+  
   65.6 B2g   1  7i1+         0.292700     1.000000
              2  7i1+  
   66.6 B2g   1  7i5+         0.146200     1.000000
              2  7i5+  
   67.6 B2g   1  7i3+         0.146200     1.000000
              2  7i3+  
   68.6 B2g   1  7i1+         0.146200     1.000000
              2  7i1+  
    1.7 B3g   1  2py         32.644300     0.000229
              2 -2py          7.758170     0.001768
                              2.461690     0.007560
                              0.869615     0.023322
    2.7 B3g   1  2py          0.327205     1.000000
              2 -2py   
    3.7 B3g   1  2py          0.134815     1.000000
              2 -2py   
    4.7 B3g   1  2py          0.059995     1.000000
              2 -2py   
    5.7 B3g   1  2py          0.028101     1.000000
              2 -2py   
    6.7 B3g   1  2py          0.013320     1.000000
              2 -2py   
    7.7 B3g   1  2py          0.003900     1.000000
              2 -2py   
    8.7 B3g   1  2py         51.457700     1.000000
              2 -2py   
    9.7 B3g   1  2py         23.052200     1.000000
              2 -2py   
   10.7 B3g   1  2py         10.327000     1.000000
              2 -2py   
   11.7 B3g   1  2py          4.626300     1.000000
              2 -2py   
   12.7 B3g   1  2py          2.072500     1.000000
              2 -2py   
   13.7 B3g   1  3d1-         0.825300     1.000000
              2  3d1-  
   14.7 B3g   1  3d1-         0.437300     1.000000
              2  3d1-  
   15.7 B3g   1  3d1-         0.231700     1.000000
              2  3d1-  
   16.7 B3g   1  3d1-         0.122800     1.000000
              2  3d1-  
   17.7 B3g   1  3d1-         0.065000     1.000000
              2  3d1-  
   18.7 B3g   1  3d1-         0.034500     1.000000
              2  3d1-  
   19.7 B3g   1  3d1-        34.914700     1.000000
              2  3d1-  
   20.7 B3g   1  3d1-        15.004700     1.000000
              2  3d1-  
   21.7 B3g   1  3d1-         6.448300     1.000000
              2  3d1-  
   22.7 B3g   1  3d1-         2.771200     1.000000
              2  3d1-  
   23.7 B3g   1  4f1-         0.679100     1.000000
              2 -4f1-  
   24.7 B3g   1  4f3-         0.679100     1.000000
              2 -4f3-  
   25.7 B3g   1  4f1-         0.358800     1.000000
              2 -4f1-  
   26.7 B3g   1  4f3-         0.358800     1.000000
              2 -4f3-  
   27.7 B3g   1  4f1-         0.189500     1.000000
              2 -4f1-  
   28.7 B3g   1  4f3-         0.189500     1.000000
              2 -4f3-  
   29.7 B3g   1  4f1-         0.100100     1.000000
              2 -4f1-  
   30.7 B3g   1  4f3-         0.100100     1.000000
              2 -4f3-  
   31.7 B3g   1  4f1-         0.052900     1.000000
              2 -4f1-  
   32.7 B3g   1  4f3-         0.052900     1.000000
              2 -4f3-  
   33.7 B3g   1  4f1-        23.047600     1.000000
              2 -4f1-  
   34.7 B3g   1  4f3-        23.047600     1.000000
              2 -4f3-  
   35.7 B3g   1  4f1-         8.994200     1.000000
              2 -4f1-  
   36.7 B3g   1  4f3-         8.994200     1.000000
              2 -4f3-  
   37.7 B3g   1  4f1-         3.509900     1.000000
              2 -4f1-  
   38.7 B3g   1  4f3-         3.509900     1.000000
              2 -4f3-  
   39.7 B3g   1  5g1-         0.419900     1.000000
              2  5g1-  
   40.7 B3g   1  5g3-         0.419900     1.000000
              2  5g3-  
   41.7 B3g   1  5g1-         0.230900     1.000000
              2  5g1-  
   42.7 B3g   1  5g3-         0.230900     1.000000
              2  5g3-  
   43.7 B3g   1  5g1-         0.127000     1.000000
              2  5g1-  
   44.7 B3g   1  5g3-         0.127000     1.000000
              2  5g3-  
   45.7 B3g   1  5g1-         0.069900     1.000000
              2  5g1-  
   46.7 B3g   1  5g3-         0.069900     1.000000
              2  5g3-  
   47.7 B3g   1  5g1-        15.913400     1.000000
              2  5g1-  
   48.7 B3g   1  5g3-        15.913400     1.000000
              2  5g3-  
   49.7 B3g   1  5g1-         5.499300     1.000000
              2  5g1-  
   50.7 B3g   1  5g3-         5.499300     1.000000
              2  5g3-  
   51.7 B3g   1  6h1-         0.337100     1.000000
              2 -6h1-  
   52.7 B3g   1  6h3-         0.337100     1.000000
              2 -6h3-  
   53.7 B3g   1  6h5-         0.337100     1.000000
              2 -6h5-  
   54.7 B3g   1  6h1-         0.183500     1.000000
              2 -6h1-  
   55.7 B3g   1  6h3-         0.183500     1.000000
              2 -6h3-  
   56.7 B3g   1  6h5-         0.183500     1.000000
              2 -6h5-  
   57.7 B3g   1  6h1-         0.099900     1.000000
              2 -6h1-  
   58.7 B3g   1  6h3-         0.099900     1.000000
              2 -6h3-  
   59.7 B3g   1  6h5-         0.099900     1.000000
              2 -6h5-  
   60.7 B3g   1  6h1-        10.203500     1.000000
              2 -6h1-  
   61.7 B3g   1  6h3-        10.203500     1.000000
              2 -6h3-  
   62.7 B3g   1  6h5-        10.203500     1.000000
              2 -6h5-  
   63.7 B3g   1  7i5-         0.292700     1.000000
              2  7i5-  
   64.7 B3g   1  7i3-         0.292700     1.000000
              2  7i3-  
   65.7 B3g   1  7i1-         0.292700     1.000000
              2  7i1-  
   66.7 B3g   1  7i5-         0.146200     1.000000
              2  7i5-  
   67.7 B3g   1  7i3-         0.146200     1.000000
              2  7i3-  
   68.7 B3g   1  7i1-         0.146200     1.000000
              2  7i1-  
    1.8 Au    1  3d2-         0.825300     1.000000
              2 -3d2-  
    2.8 Au    1  3d2-         0.437300     1.000000
              2 -3d2-  
    3.8 Au    1  3d2-         0.231700     1.000000
              2 -3d2-  
    4.8 Au    1  3d2-         0.122800     1.000000
              2 -3d2-  
    5.8 Au    1  3d2-         0.065000     1.000000
              2 -3d2-  
    6.8 Au    1  3d2-         0.034500     1.000000
              2 -3d2-  
    7.8 Au    1  3d2-        34.914700     1.000000
              2 -3d2-  
    8.8 Au    1  3d2-        15.004700     1.000000
              2 -3d2-  
    9.8 Au    1  3d2-         6.448300     1.000000
              2 -3d2-  
   10.8 Au    1  3d2-         2.771200     1.000000
              2 -3d2-  
   11.8 Au    1  4f2-         0.679100     1.000000
              2  4f2-  
   12.8 Au    1  4f2-         0.358800     1.000000
              2  4f2-  
   13.8 Au    1  4f2-         0.189500     1.000000
              2  4f2-  
   14.8 Au    1  4f2-         0.100100     1.000000
              2  4f2-  
   15.8 Au    1  4f2-         0.052900     1.000000
              2  4f2-  
   16.8 Au    1  4f2-        23.047600     1.000000
              2  4f2-  
   17.8 Au    1  4f2-         8.994200     1.000000
              2  4f2-  
   18.8 Au    1  4f2-         3.509900     1.000000
              2  4f2-  
   19.8 Au    1  5g2-         0.419900     1.000000
              2 -5g2-  
   20.8 Au    1  5g4-         0.419900     1.000000
              2 -5g4-  
   21.8 Au    1  5g2-         0.230900     1.000000
              2 -5g2-  
   22.8 Au    1  5g4-         0.230900     1.000000
              2 -5g4-  
   23.8 Au    1  5g2-         0.127000     1.000000
              2 -5g2-  
   24.8 Au    1  5g4-         0.127000     1.000000
              2 -5g4-  
   25.8 Au    1  5g2-         0.069900     1.000000
              2 -5g2-  
   26.8 Au    1  5g4-         0.069900     1.000000
              2 -5g4-  
   27.8 Au    1  5g2-        15.913400     1.000000
              2 -5g2-  
   28.8 Au    1  5g4-        15.913400     1.000000
              2 -5g4-  
   29.8 Au    1  5g2-         5.499300     1.000000
              2 -5g2-  
   30.8 Au    1  5g4-         5.499300     1.000000
              2 -5g4-  
   31.8 Au    1  6h4-         0.337100     1.000000
              2  6h4-  
   32.8 Au    1  6h2-         0.337100     1.000000
              2  6h2-  
   33.8 Au    1  6h4-         0.183500     1.000000
              2  6h4-  
   34.8 Au    1  6h2-         0.183500     1.000000
              2  6h2-  
   35.8 Au    1  6h4-         0.099900     1.000000
              2  6h4-  
   36.8 Au    1  6h2-         0.099900     1.000000
              2  6h2-  
   37.8 Au    1  6h4-        10.203500     1.000000
              2  6h4-  
   38.8 Au    1  6h2-        10.203500     1.000000
              2  6h2-  
   39.8 Au    1  7i2-         0.292700     1.000000
              2 -7i2-  
   40.8 Au    1  7i6-         0.292700     1.000000
              2 -7i6-  
   41.8 Au    1  7i4-         0.292700     1.000000
              2 -7i4-  
   42.8 Au    1  7i2-         0.146200     1.000000
              2 -7i2-  
   43.8 Au    1  7i6-         0.146200     1.000000
              2 -7i6-  
   44.8 Au    1  7i4-         0.146200     1.000000
              2 -7i4-  

 NUCLEAR CHARGE:                    6
 NUMBER OF PRIMITIVE AOS:         874
 NUMBER OF SYMMETRY AOS:          594
 NUMBER OF CONTRACTIONS:          558   (  99Ag  +  68B3u +  68B2u +  44B1g +  99B1u +  68B2g +  68B3g +  44Au  )
 NUMBER OF CORE ORBITALS:           2   (   1Ag  +   0B3u +   0B2u +   0B1g +   1B1u +   0B2g +   0B3g +   0Au  )
 NUMBER OF VALENCE ORBITALS:        8   (   2Ag  +   1B3u +   1B2u +   0B1g +   2B1u +   1B2g +   1B3g +   0Au  )


 NUCLEAR REPULSION ENERGY    1.14210908

 EXTRA SYMMETRY OF AOS IN SYMMETRY 1:   1 1 1 1 1 1 1 1 1 1   1 1 1 1 1 1 1 1 1 1   1 1 1 1 1 1 2 1 2 1   2 1 2 1 2 1 2 1 2 1
                                        2 1 2 1 2 1 2 1 2 1   2 1 2 1 2 1 2 1 2 1   2 1 3 2 1 3 2 1 3 2   1 3 2 1 3 2 1 3 2 2
                                        3 1 2 3 1 2 3 1 2 3   1 4 3 2 1 4 3 2 1
 EXTRA SYMMETRY OF AOS IN SYMMETRY 2:   1 1 1 1 1 1 1 1 1 1   1 1 1 1 1 1 1 1 1 1   1 1 1 2 1 2 1 2 1 2   1 2 1 2 1 2 1 2 1 2
                                        1 2 1 2 1 2 1 2 1 2   1 2 3 1 2 3 1 2 3 1   2 3 3 2 1 3 2 1
 EXTRA SYMMETRY OF AOS IN SYMMETRY 3:   1 1 1 1 1 1 1 1 1 1   1 1 1 1 1 1 1 1 1 1   1 1 1 2 1 2 1 2 1 2   1 2 1 2 1 2 1 2 1 2
                                        1 2 1 2 1 2 1 2 1 2   1 2 3 1 2 3 1 2 3 1   2 3 3 2 1 3 2 1
 EXTRA SYMMETRY OF AOS IN SYMMETRY 4:   1 1 1 1 1 1 1 1 1 1   1 1 1 1 1 1 1 1 1 2   1 2 1 2 1 2 1 2 1 2   2 1 2 1 2 1 2 1 1 3
                                        2 1 3 2
 EXTRA SYMMETRY OF AOS IN SYMMETRY 5:   1 1 1 1 1 1 1 1 1 1   1 1 1 1 1 1 1 1 1 1   1 1 1 1 1 1 2 1 2 1   2 1 2 1 2 1 2 1 2 1
                                        2 1 2 1 2 1 2 1 2 1   2 1 2 1 2 1 2 1 2 1   2 1 3 2 1 3 2 1 3 2   1 3 2 1 3 2 1 3 2 2
                                        3 1 2 3 1 2 3 1 2 3   1 4 3 2 1 4 3 2 1
 EXTRA SYMMETRY OF AOS IN SYMMETRY 6:   1 1 1 1 1 1 1 1 1 1   1 1 1 1 1 1 1 1 1 1   1 1 1 2 1 2 1 2 1 2   1 2 1 2 1 2 1 2 1 2
                                        1 2 1 2 1 2 1 2 1 2   1 2 3 1 2 3 1 2 3 1   2 3 3 2 1 3 2 1
 EXTRA SYMMETRY OF AOS IN SYMMETRY 7:   1 1 1 1 1 1 1 1 1 1   1 1 1 1 1 1 1 1 1 1   1 1 1 2 1 2 1 2 1 2   1 2 1 2 1 2 1 2 1 2
                                        1 2 1 2 1 2 1 2 1 2   1 2 3 1 2 3 1 2 3 1   2 3 3 2 1 3 2 1
 EXTRA SYMMETRY OF AOS IN SYMMETRY 8:   1 1 1 1 1 1 1 1 1 1   1 1 1 1 1 1 1 1 1 2   1 2 1 2 1 2 1 2 1 2   2 1 2 1 2 1 2 1 1 3
                                        2 1 3 2

 Eigenvalues of metric

         1 0.693E-06 0.167E-03 0.480E-03 0.732E-03 0.176E-02 0.279E-02 0.380E-02 0.514E-02
         2 0.138E-02 0.369E-02 0.505E-02 0.854E-02 0.107E-01 0.149E-01 0.199E-01 0.249E-01
         3 0.138E-02 0.369E-02 0.505E-02 0.854E-02 0.107E-01 0.149E-01 0.199E-01 0.249E-01
         4 0.380E-02 0.131E-01 0.211E-01 0.245E-01 0.325E-01 0.469E-01 0.513E-01 0.103E+00
         5 0.694E-06 0.588E-05 0.919E-04 0.180E-03 0.106E-02 0.113E-02 0.122E-02 0.159E-02
         6 0.761E-04 0.831E-03 0.233E-02 0.491E-02 0.881E-02 0.130E-01 0.153E-01 0.157E-01
         7 0.761E-04 0.831E-03 0.233E-02 0.491E-02 0.881E-02 0.130E-01 0.153E-01 0.157E-01
         8 0.122E-02 0.400E-02 0.548E-02 0.193E-01 0.224E-01 0.294E-01 0.460E-01 0.614E-01


 Contracted 2-electron integrals neglected if value below      1.0D-13
 AO integral compression algorithm  1   Integral accuracy      1.0D-13

     7540.572 MB (compressed) written to integral file ( 38.3%)


 NUMBER OF SORTED TWO-ELECTRON INTEGRALS: 1535378232.     BUFFER LENGTH:  32768
 NUMBER OF SEGMENTS:  48  SEGMENT LENGTH:   31999642      RECORD LENGTH: 524288

 Memory used in sort:      32.56 MW

 SORT1 READ  2460571128. AND WROTE  1030751485. INTEGRALS IN   2973 RECORDS. CPU TIME:    75.36 SEC, REAL TIME:   132.81 SEC
 SORT2 READ  1030751485. AND WROTE  1535378232. INTEGRALS IN  28765 RECORDS. CPU TIME:    30.49 SEC, REAL TIME:   204.19 SEC

 FILE SIZES:   FILE 1:  7555.0 MBYTE,  FILE 4: 12469.7 MBYTE,   TOTAL:  20024.7 MBYTE

 OPERATOR DM      FOR CENTER  0  COORDINATES:    0.000000    0.000000    0.000000


 **********************************************************************************************************************************
 DATASETS  * FILE   NREC   LENGTH (MB)   RECORD NAMES
              1      19     4949.43       500      610      700      900      950      970     1000      129      960     1100   
                                          VAR    BASINP    GEOM    SYMINP    ZMAT    AOBASIS   BASIS     P2S    ABASIS      S 
                                         1400     1410     1200     1210     1080     1600     1650     1300     1700   
                                           T        V       H0       H01     AOSYM     SMH    MOLCAS    ERIS     OPER   

 PROGRAMS   *        TOTAL       INT
 CPU TIMES  *      1243.09   1243.00
 REAL TIME  *      1507.53 SEC
 DISK USED  *        20.03 GB      
 **********************************************************************************************************************************

1PROGRAM * RHF-SCF (OPEN SHELL)       Authors: W. Meyer, H.-J. Werner


 NUMBER OF ELECTRONS:       4+    2-
 CONVERGENCE THRESHOLDS:    1.00E-05 (Density)    1.00E-07 (Energy)
 MAX. NUMBER OF ITERATIONS:       60
 INTERPOLATION TYPE:            DIIS
 INTERPOLATION STEPS:              2 (START)      1 (STEP)
 LEVEL SHIFTS:                 -0.30 (CLOSED)  0.00 (OPEN) 




   Atom=LI basis=cc-pVTZ           lmin=0  lmax=1

 Orbital guess generated from atomic densities. Full valence occupancy:    2   0   0   0   2   0   0   0


 Molecular orbital dump at record        2100.2

 Initial alpha occupancy:   2   0   0   0   2   0   0   0
 Initial beta  occupancy:   1   0   0   0   1   0   0   0
 Wave function symmetry:    5

 ITERATION    DDIFF          GRAD             ENERGY        2-EL.EN.            DIPOLE MOMENTS         DIIS   ORB.
    1      0.000D+00      0.000D+00       -14.85872882     11.117428    0.00000    0.00000    0.00000    0    start
    2      0.000D+00      0.735D-03       -14.86290220     11.270635    0.00000    0.00000    0.00000    1    diag,B
    3      0.199D-02      0.330D-03       -14.86398646     11.373936    0.00000    0.00000    0.00000    2    diag,B
    4      0.130D-02      0.624D-04       -14.86401699     11.389311    0.00000    0.00000    0.00000    3    diag,B
    5      0.198D-03      0.150D-04       -14.86401921     11.390072    0.00000    0.00000    0.00000    4    diag,B
    6      0.188D-04      0.627D-05       -14.86401965     11.390338    0.00000    0.00000    0.00000    5    diag,B
    7      0.891D-05      0.974D-06       -14.86401966     11.390289    0.00000    0.00000    0.00000    6    fixocc
    8      0.186D-05      0.364D-06       -14.86401966     11.390277    0.00000    0.00000    0.00000    0    orth

 Final alpha occupancy:   2   0   0   0   2   0   0   0
 Final beta  occupancy:   1   0   0   0   1   0   0   0

 !RHF STATE 1.5 Energy                -14.864019661198
 Nuclear energy                         1.14210908
 One-electron energy                  -21.70126703
 Two-electron energy                    5.69513828
 Virial quotient                       -0.99947567
 !RHF STATE 1.5 Dipole moment           0.00000000     0.00000000     0.00000000
 Dipole moment /Debye                   0.00000000     0.00000000     0.00000000

 ELECTRON ORBITALS
 =================


   Orb  Occ    Energy  Couls-En    Coefficients

                                   1 1s      1 1s      1 1s      1 1s      1 1s      1 1s      1 1s      1 1s      1 1s      1 1s   
                                   1 1s      1 1s      1 1s      1 2pz     1 2pz     1 2pz     1 2pz     1 2pz     1 2pz     1 2pz  
                                   1 2pz     1 2pz     1 2pz     1 2pz     1 2pz     1 3d0     1 3d2+    1 3d0     1 3d2+    1 3d0  
                                   1 3d2+    1 3d0     1 3d2+    1 3d0     1 3d2+    1 3d0     1 3d2+    1 3d0     1 3d2+    1 3d0  
                                   1 3d2+    1 3d0     1 3d2+    1 3d0     1 3d2+    1 4f0     1 4f2+    1 4f0     1 4f2+    1 4f0  
                                   1 4f2+    1 4f0     1 4f2+    1 4f0     1 4f2+    1 4f0     1 4f2+    1 4f0     1 4f2+    1 4f0  
                                   1 4f2+    1 5g0     1 5g4+    1 5g2+    1 5g0     1 5g4+    1 5g2+    1 5g0     1 5g4+    1 5g2+ 
                                   1 5g0     1 5g4+    1 5g2+    1 5g0     1 5g4+    1 5g2+    1 5g0     1 5g4+    1 5g2+    1 6h2+ 
                                   1 6h4+    1 6h0     1 6h2+    1 6h4+    1 6h0     1 6h2+    1 6h4+    1 6h0     1 6h2+    1 6h4+ 
                                   1 6h0     1 7i6+    1 7i4+    1 7i2+    1 7i0     1 7i6+    1 7i4+    1 7i2+    1 7i0  

   1.1   2    -2.4782   -7.3020  0.687417 -0.000899  0.291170  0.104358  0.003857 -0.000328 -0.000094 -0.000015  0.000000 -0.000002
                                 0.000014 -0.000025  0.000087  0.000224  0.000053  0.000137  0.000607 -0.000859  0.000127 -0.000040
                                -0.000000  0.000000 -0.000006 -0.000003 -0.000027 -0.000052 -0.000000  0.000096  0.000000 -0.000179
                                -0.000000  0.000334 -0.000000 -0.000152  0.000000 -0.000460 -0.000000 -0.000000 -0.000000  0.000000
                                 0.000000 -0.000002  0.000000  0.000001  0.000000 -0.000008  0.000000  0.000031 -0.000000 -0.000073
                                 0.000000  0.000164 -0.000000 -0.000411  0.000000  0.000000  0.000000 -0.000000  0.000000 -0.000000
                                -0.000000  0.000011  0.000000  0.000000 -0.000040 -0.000000 -0.000000  0.000071  0.000000 -0.000000
                                -0.000153 -0.000000  0.000000  0.000000  0.000000 -0.000000 -0.000000  0.000000  0.000000 -0.000000
                                -0.000000 -0.000010  0.000000  0.000000  0.000019  0.000000 -0.000000 -0.000026 -0.000000  0.000000
                                 0.000000  0.000000 -0.000000 -0.000000 -0.000001 -0.000000  0.000000  0.000000  0.000010

   2.1   +    -0.2277   -1.4859  0.000171 -0.122919 -0.091022 -0.085079  0.285222  0.541187  0.138828 -0.000685 -0.000022  0.000062
                                -0.000117  0.000105 -0.000022  0.003458  0.007014  0.022153  0.047587  0.005955 -0.002591  0.000203
                                 0.000002  0.000001  0.000016  0.000034  0.000102  0.000218 -0.000000  0.000229  0.000000  0.001891
                                -0.000000  0.005583  0.000000  0.015599 -0.000000  0.004181  0.000000 -0.000000 -0.000000  0.000002
                                 0.000000  0.000002 -0.000000  0.000033  0.000000  0.000006  0.000000  0.000191 -0.000000  0.000442
                                 0.000000  0.004132 -0.000000  0.004263  0.000000  0.000000 -0.000000 -0.000001  0.000000  0.000004
                                -0.000000  0.000026 -0.000000  0.000000  0.000056  0.000000 -0.000000  0.000948 -0.000000  0.000000
                                 0.001812  0.000000 -0.000000 -0.000000 -0.000000  0.000000  0.000000 -0.000000 -0.000000 -0.000000
                                -0.000000  0.000029  0.000000  0.000000  0.000042 -0.000000 -0.000000  0.000639 -0.000000 -0.000000
                                 0.000000 -0.000000 -0.000000 -0.000000  0.000020  0.000000  0.000000  0.000000  0.000060

                                   1 1s      1 1s      1 1s      1 1s      1 1s      1 1s      1 1s      1 1s      1 1s      1 1s   
                                   1 1s      1 1s      1 1s      1 2pz     1 2pz     1 2pz     1 2pz     1 2pz     1 2pz     1 2pz  
                                   1 2pz     1 2pz     1 2pz     1 2pz     1 2pz     1 3d0     1 3d2+    1 3d0     1 3d2+    1 3d0  
                                   1 3d2+    1 3d0     1 3d2+    1 3d0     1 3d2+    1 3d0     1 3d2+    1 3d0     1 3d2+    1 3d0  
                                   1 3d2+    1 3d0     1 3d2+    1 3d0     1 3d2+    1 4f0     1 4f2+    1 4f0     1 4f2+    1 4f0  
                                   1 4f2+    1 4f0     1 4f2+    1 4f0     1 4f2+    1 4f0     1 4f2+    1 4f0     1 4f2+    1 4f0  
                                   1 4f2+    1 5g0     1 5g4+    1 5g2+    1 5g0     1 5g4+    1 5g2+    1 5g0     1 5g4+    1 5g2+ 
                                   1 5g0     1 5g4+    1 5g2+    1 5g0     1 5g4+    1 5g2+    1 5g0     1 5g4+    1 5g2+    1 6h2+ 
                                   1 6h4+    1 6h0     1 6h2+    1 6h4+    1 6h0     1 6h2+    1 6h4+    1 6h0     1 6h2+    1 6h4+ 
                                   1 6h0     1 7i6+    1 7i4+    1 7i2+    1 7i0     1 7i6+    1 7i4+    1 7i2+    1 7i0  

   1.5   2    -2.4782   -7.3020  0.687456 -0.000949  0.291139  0.104529 -0.000137  0.008922  0.000299 -0.000147  0.000001 -0.000003
                                 0.000018 -0.000032  0.000098  0.000164  0.000254 -0.001836  0.007736  0.000922 -0.000154 -0.000014
                                -0.000000 -0.000001 -0.000001 -0.000006  0.000003 -0.000081 -0.000000  0.000225  0.000000 -0.000594
                                -0.000000  0.000511 -0.000000  0.003983  0.000000  0.000348  0.000000 -0.000000 -0.000000  0.000001
                                 0.000000 -0.000003 -0.000000  0.000004  0.000000 -0.000008 -0.000000  0.000039  0.000000 -0.000280
                                -0.000000  0.001524  0.000000  0.000774  0.000000  0.000000 -0.000000 -0.000000  0.000000  0.000000
                                -0.000000  0.000001 -0.000000  0.000000 -0.000053 -0.000000 -0.000000  0.000424  0.000000  0.000000
                                 0.000342  0.000000  0.000000 -0.000000  0.000000 -0.000000  0.000000 -0.000000  0.000000 -0.000000
                                 0.000000 -0.000014 -0.000000  0.000000  0.000081  0.000000 -0.000000  0.000110  0.000000  0.000000
                                 0.000000  0.000000  0.000000 -0.000000  0.000010  0.000000 -0.000000  0.000000  0.000018

   2.5   +    -0.1706   -1.3183  0.001189 -0.130037 -0.096840 -0.091577  0.318161  0.599891  0.309000  0.015861 -0.000027  0.000077
                                -0.000161  0.000170 -0.000157 -0.003948 -0.009138 -0.021963 -0.074548 -0.042726  0.002377  0.001316
                                -0.000003  0.000000 -0.000022 -0.000026 -0.000146  0.000014  0.000000 -0.000613 -0.000000  0.000292
                                 0.000000 -0.004224 -0.000000 -0.017753  0.000000 -0.009480  0.000000  0.000001  0.000000 -0.000003
                                -0.000000  0.000006  0.000000 -0.000036 -0.000000 -0.000011 -0.000000 -0.000096  0.000000  0.000219
                                -0.000000 -0.004629 -0.000000 -0.004669  0.000000 -0.000000 -0.000000  0.000000 -0.000000 -0.000001
                                 0.000000 -0.000023  0.000000 -0.000000  0.000116 -0.000000  0.000000 -0.001204  0.000000 -0.000000
                                -0.001335 -0.000000  0.000000  0.000000  0.000000 -0.000000 -0.000000  0.000000  0.000000  0.000000
                                 0.000000  0.000014 -0.000000 -0.000000 -0.000153  0.000000  0.000000 -0.000363 -0.000000 -0.000000
                                -0.000000  0.000000  0.000000 -0.000000 -0.000028 -0.000000 -0.000000  0.000000 -0.000018

 HOMO      2.5    -0.170630 =      -4.6431eV
 LUMO      3.1     0.004216 =       0.1147eV
 LUMO-HOMO         0.174846 =       4.7578eV


 **********************************************************************************************************************************
 DATASETS  * FILE   NREC   LENGTH (MB)   RECORD NAMES
              1      19     4949.43       500      610      700      900      950      970     1000      129      960     1100   
                                          VAR    BASINP    GEOM    SYMINP    ZMAT    AOBASIS   BASIS     P2S    ABASIS      S 
                                         1400     1410     1200     1210     1080     1600     1650     1300     1700   
                                           T        V       H0       H01     AOSYM     SMH    MOLCAS    ERIS     OPER   

              2       4        1.62       700     1000      520     2100   
                                         GEOM     BASIS   MCVARS     RHF  

 PROGRAMS   *        TOTAL       RHF       INT
 CPU TIMES  *      1273.46     30.38   1243.00
 REAL TIME  *      1555.99 SEC
 DISK USED  *        20.03 GB      
 **********************************************************************************************************************************


1PROGRAM * CISD (Restricted open-shell CI(SD))     Authors: C. Hampel, H.-J. Werner, 1991, M. Deegan, P.J. Knowles, 1992


 Convergence thresholds:  THRVAR = 1.00D-08  THRDEN = 1.00D-06

 Number of closed-shell orbitals:   2 (   1   0   0   0   1   0   0   0 )
 Number of active  orbitals:        2 (   1   0   0   0   1   0   0   0 )
 Number of external orbitals:     554 (  97  68  68  44  97  68  68  44 )

 Number of N-1 electron functions:               6
 Number of N-2 electron functions:              15
 Number of singly external CSFs:               588
 Number of doubly external CSFs:            481348
 Total number of CSFs:                      481936

 Molecular orbitals read from record     2100.2  Type=RHF/CANONICAL (state 1.5)

 Integral transformation finished. Total CPU:   5.97 sec, npass=  1  Memory used:   0.86 MW

 Starting RMP2 calculation

 Wavefunction is spin-projected

 ITER.      SQ.NORM     CORR.ENERGY   TOTAL ENERGY   ENERGY CHANGE        DEN1      VAR(S)    VAR(P)  DIIS     TIME
   1      1.00766576    -0.08380800   -14.94782766    -0.08380800    -0.00008232  0.74D-08  0.84D-04  1  1     6.03
   2      1.00790434    -0.08389741   -14.94791707    -0.00008941    -0.00000269  0.18D-10  0.37D-05  2  2     6.06
   3      1.00796778    -0.08391320   -14.94793286    -0.00001579    -0.00000001  0.46D-12  0.11D-07  3  3     6.10
   4      1.00796896    -0.08391331   -14.94793297    -0.00000011    -0.00000000  0.16D-13  0.11D-09  4  4     6.13

 Norm of t1 vector:      0.00256830      S-energy:    -0.00003094      T1 diagnostic:  0.00000909
 Norm of t2 vector:      0.08923207      P-energy:    -0.08388237
                                         Alpha-Beta:  -0.08136847
                                         Alpha-Alpha: -0.00251382
                                         Beta-Beta:   -0.00000007

 Spin contamination <S**2-Sz**2-Sz>     0.00000000
  Reference energy                    -14.864019661198
  RHF-RMP2 correlation energy          -0.083913310775
 !RHF-RMP2 energy                     -14.947932971973
 (NB above energy spin projected)

 Starting RCISD calculation

 ITER.      SQ.NORM     CORR.ENERGY   TOTAL ENERGY   ENERGY CHANGE        DEN1      VAR(S)    VAR(P)  DIIS     TIME
   1      1.00973208    -0.08962752   -14.95364718    -0.08962752    -0.00142971  0.31D-04  0.43D-03  1  1    14.78
   2      1.01143967    -0.09139158   -14.95541124    -0.00176406    -0.00008035  0.13D-04  0.89D-04  2  2    23.00
   3      1.01247444    -0.09159116   -14.95561082    -0.00019958    -0.00001915  0.42D-05  0.23D-04  3  3    31.13
   4      1.01351378    -0.09164429   -14.95566395    -0.00005313    -0.00000101  0.42D-06  0.88D-06  4  4    39.16
   5      1.01371629    -0.09166480   -14.95568446    -0.00002051    -0.00000007  0.31D-07  0.58D-07  5  5    47.28
   6      1.01373565    -0.09166573   -14.95568539    -0.00000092    -0.00000001  0.89D-09  0.52D-08  6  6    55.37

 Norm of t1 vector:      0.01594063      S-energy:    -0.00004101      T1 diagnostic:  0.00449005
 Norm of t2 vector:      0.11611007      P-energy:    -0.09162483
                                         Alpha-Beta:  -0.08819538
                                         Alpha-Alpha: -0.00342937
                                         Beta-Beta:   -0.00000008

 Spin contamination <S**2-Sz**2-Sz>     0.00000000
 

 ?Inconsistent energies:

 ecorr    -0.0916658440  -0.0916657264   -0.12D-06
 estrong  -0.0916248333  -0.0916248333    0.14D-16
 eclose    0.0000000000   0.0000000000    0.00D+00
 eweak     0.0000000000   0.0000000000    0.00D+00
 edist     0.0000000000   0.0000000000    0.00D+00

  Correlated core orbitals:             1.1       1.5
  Orbital energies:                    -2.4853   -2.4853
 
  RCISD core-core energy               -0.084732010665
  RCISD core-valence energy            -0.004833641903
  RCISD valence correlation energy     -0.002100191460
 

 RESULTS
 =======

  Reference energy                    -14.864019661198
  RCISD singles energy                 -0.000040893084
  RCISD pair energy                    -0.091624833277
  RCISD correlation energy             -0.091665726360
 
 !RHF-RCISD energy                    -14.955685387559

 Program statistics:

 Available memory in ccsd:              5879999732
 Min. memory needed in ccsd:               2490810
 Max. memory used in ccsd:                 2951314
 Max. memory used in cckext:               3235908 ( 6 integral passes)
 Max. memory used in cckint:                856663 ( 1 integral passes)



 **********************************************************************************************************************************
 DATASETS  * FILE   NREC   LENGTH (MB)   RECORD NAMES
              1      19     4949.43       500      610      700      900      950      970     1000      129      960     1100   
                                          VAR    BASINP    GEOM    SYMINP    ZMAT    AOBASIS   BASIS     P2S    ABASIS      S 
                                         1400     1410     1200     1210     1080     1600     1650     1300     1700   
                                           T        V       H0       H01     AOSYM     SMH    MOLCAS    ERIS     OPER   

              2       4        1.62       700     1000      520     2100   
                                         GEOM     BASIS   MCVARS     RHF  

 PROGRAMS   *        TOTAL     RCISD       RHF       INT
 CPU TIMES  *      1328.94     55.48     30.38   1243.00
 REAL TIME  *      1624.77 SEC
 DISK USED  *        20.03 GB      
 **********************************************************************************************************************************


1PROGRAM * RMP2 (Restricted open-shell)     Authors: U. Schumann, H.-J. Werner, 2001


 Convergence thresholds:  THRVAR = 1.00D-08  THRDEN = 1.00D-06

 Number of closed-shell orbitals:   2 (   1   0   0   0   1   0   0   0 )
 Number of active  orbitals:        2 (   1   0   0   0   1   0   0   0 )
 Number of external orbitals:     554 (  97  68  68  44  97  68  68  44 )

 Reading UHF information from record   2100.2

                               TOTAL       A-A         B-B         A-B
 Pair energies:            -0.08388156 -0.00251281 -0.00000007 -0.08136867
 Singles energies:         -0.00003190 -0.00001598 -0.00001592

 Reference energy                     -14.864019661198
 Correlation energy                    -0.083913456905
 !RMP2 STATE 1.5 Energy               -14.947933118103


 **********************************************************************************************************************************
 DATASETS  * FILE   NREC   LENGTH (MB)   RECORD NAMES
              1      19     4949.43       500      610      700      900      950      970     1000      129      960     1100   
                                          VAR    BASINP    GEOM    SYMINP    ZMAT    AOBASIS   BASIS     P2S    ABASIS      S 
                                         1400     1410     1200     1210     1080     1600     1650     1300     1700   
                                           T        V       H0       H01     AOSYM     SMH    MOLCAS    ERIS     OPER   

              2       4        1.62       700     1000      520     2100   
                                         GEOM     BASIS   MCVARS     RHF  

 PROGRAMS   *        TOTAL      RMP2     RCISD       RHF       INT
 CPU TIMES  *      1334.38      5.43     55.48     30.38   1243.00
 REAL TIME  *      1630.66 SEC
 DISK USED  *        20.03 GB      
 **********************************************************************************************************************************


1PROGRAM * CCSD (Restricted open-shell coupled cluster)     Authors: C. Hampel, H.-J. Werner, 1991, M. Deegan, P.J. Knowles, 1992


 Convergence thresholds:  THRVAR = 1.00D-08  THRDEN = 1.00D-06

 CCSD(T)     terms to be evaluated (factor= 1.000)


 Number of closed-shell orbitals:   2 (   1   0   0   0   1   0   0   0 )
 Number of active  orbitals:        2 (   1   0   0   0   1   0   0   0 )
 Number of external orbitals:     554 (  97  68  68  44  97  68  68  44 )

 Memory could be reduced to 222.29 Mwords without degradation in triples

 Number of N-1 electron functions:               6
 Number of N-2 electron functions:              15
 Number of singly external CSFs:               588
 Number of doubly external CSFs:            481348
 Total number of CSFs:                      481936

 Molecular orbitals read from record     2100.2  Type=RHF/CANONICAL (state 1.5)

 Integral transformation finished. Total CPU:  13.16 sec, npass=  1  Memory used:  30.20 MW

 Starting RMP2 calculation

 Wavefunction is spin-projected

 ITER.      SQ.NORM     CORR.ENERGY   TOTAL ENERGY   ENERGY CHANGE        DEN1      VAR(S)    VAR(P)  DIIS     TIME
   1      1.00766576    -0.08380800   -14.94782766    -0.08380800    -0.00008232  0.74D-08  0.84D-04  1  1    13.19
   2      1.00790434    -0.08389741   -14.94791707    -0.00008941    -0.00000269  0.18D-10  0.37D-05  2  2    13.23
   3      1.00796778    -0.08391320   -14.94793286    -0.00001579    -0.00000001  0.46D-12  0.11D-07  3  3    13.25
   4      1.00796896    -0.08391331   -14.94793297    -0.00000011    -0.00000000  0.16D-13  0.11D-09  4  4    13.29

 Norm of t1 vector:      0.00256830      S-energy:    -0.00003094      T1 diagnostic:  0.00000909
 Norm of t2 vector:      0.08923207      P-energy:    -0.08388237
                                         Alpha-Beta:  -0.08136847
                                         Alpha-Alpha: -0.00251382
                                         Beta-Beta:   -0.00000007

 Spin contamination <S**2-Sz**2-Sz>     0.00000000
  Reference energy                    -14.864019661198
  RHF-RMP2 correlation energy          -0.083913310775
 !RHF-RMP2 energy                     -14.947932971973
 (NB above energy spin projected)

 Starting RCCSD calculation

 ITER.      SQ.NORM     CORR.ENERGY   TOTAL ENERGY   ENERGY CHANGE        DEN1      VAR(S)    VAR(P)  DIIS     TIME
   1      1.01020512    -0.09000167   -14.95402133    -0.09000167    -0.00160709  0.31D-04  0.58D-03  1  1    21.85
   2      1.01278860    -0.09181269   -14.95583235    -0.00181102    -0.00016663  0.25D-04  0.20D-03  2  2    30.21
   3      1.01516997    -0.09225199   -14.95627165    -0.00043930    -0.00006339  0.18D-04  0.77D-04  3  3    38.75
   4      1.01939759    -0.09267523   -14.95669489    -0.00042324    -0.00000798  0.77D-05  0.54D-05  4  4    47.29
   5      1.02076585    -0.09276379   -14.95678345    -0.00008857    -0.00000151  0.21D-05  0.71D-06  5  5    55.86
   6      1.02121068    -0.09278145   -14.95680111    -0.00001766    -0.00000021  0.30D-06  0.80D-07  6  6    64.28
   7      1.02132434    -0.09278576   -14.95680542    -0.00000431    -0.00000003  0.49D-07  0.14D-07  6  1    72.84
   8      1.02136307    -0.09278729   -14.95680695    -0.00000153    -0.00000001  0.94D-08  0.19D-08  6  2    81.23
   9      1.02137607    -0.09278771   -14.95680737    -0.00000042    -0.00000000  0.21D-08  0.40D-09  6  3    89.56

 Norm of t1 vector:      0.03504543      S-energy:    -0.00004144      T1 diagnostic:  0.01006501
                                                                       D1 diagnostic:  0.02430149
 Norm of t2 vector:      0.14194326      P-energy:    -0.09274627
                                         Alpha-Beta:  -0.08852109
                                         Alpha-Alpha: -0.00422509
                                         Beta-Beta:   -0.00000008

 Spin contamination <S**2-Sz**2-Sz>     0.00000000

 Memory could be reduced to 224.48 Mwords without degradation in triples
 

  Correlated core orbitals:             1.1       1.5
  Orbital energies:                    -2.4853   -2.4853
 
  RCCSD core-core energy               -0.085029622864
  RCCSD core-valence energy            -0.004873189798
  RCCSD valence correlation energy     -0.002884896783
 

 RESULTS
 =======

  Reference energy                    -14.864019661198
  RCCSD singles energy                 -0.000041439929
  RCCSD pair energy                    -0.092746269516
  RCCSD correlation energy             -0.092787709445
  Triples (T) contribution             -0.000128979518
  Total correlation energy             -0.092916688963
 
  RHF-RCCSD energy                    -14.956807370643
  RHF-RCCSD[T] energy                 -14.956939045845
  RHF-RCCSD-T energy                  -14.956936034879
 !RHF-RCCSD(T) energy                 -14.956936350161

 Program statistics:

 Available memory in ccsd:              5879999732
 Min. memory needed in ccsd:               2490810
 Max. memory used in ccsd:                 2951314
 Max. memory used in cckext:               3235908 ( 9 integral passes)
 Max. memory used in cckint:              30201210 ( 1 integral passes)



 **********************************************************************************************************************************
 DATASETS  * FILE   NREC   LENGTH (MB)   RECORD NAMES
              1      19     4949.43       500      610      700      900      950      970     1000      129      960     1100   
                                          VAR    BASINP    GEOM    SYMINP    ZMAT    AOBASIS   BASIS     P2S    ABASIS      S 
                                         1400     1410     1200     1210     1080     1600     1650     1300     1700   
                                           T        V       H0       H01     AOSYM     SMH    MOLCAS    ERIS     OPER   

              2       4        1.62       700     1000      520     2100   
                                         GEOM     BASIS   MCVARS     RHF  

 PROGRAMS   *        TOTAL  RCCSD(T)      RMP2     RCISD       RHF       INT
 CPU TIMES  *      1459.29    124.90      5.43     55.48     30.38   1243.00
 REAL TIME  *      1791.08 SEC
 DISK USED  *        20.03 GB      
 **********************************************************************************************************************************


1PROGRAM * CCSD (Unrestricted open-shell coupled cluster)     Authors: C. Hampel, H.-J. Werner, 1991, M. Deegan, P.J. Knowles, 1992


 Convergence thresholds:  THRVAR = 1.00D-08  THRDEN = 1.00D-06

 CCSD(T)     terms to be evaluated (factor= 1.000)


 Number of closed-shell orbitals:   2 (   1   0   0   0   1   0   0   0 )
 Number of active  orbitals:        2 (   1   0   0   0   1   0   0   0 )
 Number of external orbitals:     554 (  97  68  68  44  97  68  68  44 )

 Memory could be reduced to 222.29 Mwords without degradation in triples

 Number of N-1 electron functions:               6
 Number of N-2 electron functions:              15
 Number of singly external CSFs:               588
 Number of doubly external CSFs:            481348
 Total number of CSFs:                      481936

[...]
                                   1 3d2+    1 3d0     1 3d2+    1 3d0     1 3d2+    1 3d0     1 3d2+    1 3d0     1 3d2+    1 3d0  
                                   1 3d2+    1 3d0     1 3d2+    1 3d0     1 3d2+    1 4f0     1 4f2+    1 4f0     1 4f2+    1 4f0  
                                   1 4f2+    1 4f0     1 4f2+    1 4f0     1 4f2+    1 4f0     1 4f2+    1 4f0     1 4f2+    1 4f0  
                                   1 4f2+    1 5g0     1 5g4+    1 5g2+    1 5g0     1 5g4+    1 5g2+    1 5g0     1 5g4+    1 5g2+ 
                                   1 5g0     1 5g4+    1 5g2+    1 5g0     1 5g4+    1 5g2+    1 5g0     1 5g4+    1 5g2+    1 6h2+ 
                                   1 6h4+    1 6h0     1 6h2+    1 6h4+    1 6h0     1 6h2+    1 6h4+    1 6h0     1 6h2+    1 6h4+ 
                                   1 6h0     1 7i6+    1 7i4+    1 7i2+    1 7i0     1 7i6+    1 7i4+    1 7i2+    1 7i0  

   1.1  2.00000    -2.478443     0.687556 -0.001052  0.291179  0.104350  0.003883 -0.000355 -0.000103 -0.000014  0.000001 -0.000002
                                 0.000017 -0.000026  0.000101 -0.000015 -0.000070  0.000191  0.000587 -0.000856  0.000126 -0.000040
                                -0.000000  0.000001 -0.000002  0.000005 -0.000016 -0.000064  0.000000  0.000090  0.000000 -0.000181
                                 0.000000  0.000354  0.000000 -0.000169  0.000000 -0.000459  0.000000 -0.000000  0.000000  0.000000
                                 0.000000 -0.000001  0.000000 -0.000002  0.000000 -0.000009  0.000000  0.000029  0.000000 -0.000065
                                 0.000000  0.000157  0.000000 -0.000415  0.000000 -0.000000  0.000000  0.000000  0.000000 -0.000000
                                 0.000000  0.000010  0.000000  0.000000 -0.000037  0.000000  0.000000  0.000068  0.000000  0.000000
                                -0.000156  0.000000  0.000000  0.000000  0.000000  0.000000 -0.000000  0.000000  0.000000  0.000000
                                 0.000000 -0.000010  0.000000  0.000000  0.000019  0.000000  0.000000 -0.000028  0.000000  0.000000
                                 0.000000  0.000000  0.000000  0.000000 -0.000001  0.000000  0.000000  0.000000  0.000009

   2.1  0.98620    -0.099985     0.000059 -0.121884 -0.090352 -0.084272  0.281936  0.533816  0.134656 -0.000775 -0.000022  0.000062
                                -0.000118  0.000106 -0.000029  0.004659  0.009647  0.028091  0.063072  0.016177 -0.002443  0.000246
                                 0.000003  0.000000  0.000015  0.000032  0.000087  0.000230  0.000000  0.000294  0.000000  0.001902
                                 0.000000  0.006427  0.000000  0.018018  0.000000  0.005931  0.000000 -0.000000  0.000000  0.000002
                                 0.000000  0.000002  0.000000  0.000038  0.000000  0.000012  0.000000  0.000179  0.000000  0.000522
                                 0.000000  0.004502  0.000000  0.004566  0.000000  0.000000  0.000000 -0.000001  0.000000  0.000004
                                 0.000000  0.000026  0.000000  0.000000  0.000062  0.000000  0.000000  0.001025  0.000000  0.000000
                                 0.001751  0.000000  0.000000 -0.000000  0.000000  0.000000  0.000000  0.000000  0.000000  0.000000
                                 0.000000  0.000028  0.000000  0.000000  0.000055  0.000000  0.000000  0.000609  0.000000  0.000000
                                 0.000000  0.000000  0.000000  0.000000  0.000020  0.000000  0.000000  0.000000  0.000053

   3.1  0.00711     0.078578     0.019634  0.015276  0.039972  0.022269 -0.294777 -0.043178 -0.139992 -0.001223  0.000079 -0.000260
                                 0.000853 -0.001241  0.003301  0.027899  0.065772  0.140101  0.495097  0.173855 -0.012689  0.003760
                                 0.000018 -0.000026  0.000137 -0.000049  0.000870  0.001246  0.000000  0.003373  0.000000  0.010321
                                 0.000000  0.035666  0.000000  0.178545  0.000000  0.059824  0.000000 -0.000002  0.000000  0.000020
                                 0.000000 -0.000018  0.000000  0.000305  0.000000 -0.000240  0.000000  0.002149  0.000000 -0.002573
                                 0.000000  0.040429  0.000000  0.051243  0.000000  0.000002  0.000000 -0.000008  0.000000  0.000029
                                 0.000000  0.000465  0.000000  0.000000 -0.001646  0.000000  0.000000  0.009239  0.000000  0.000000
                                 0.018579  0.000000  0.000000  0.000000  0.000000  0.000000 -0.000001  0.000000  0.000000  0.000000
                                 0.000000 -0.000149  0.000000  0.000000  0.000503  0.000000  0.000000  0.006333  0.000000  0.000000
                                 0.000000  0.000000  0.000000  0.000000 -0.000137  0.000000  0.000000  0.000000  0.001409

                                   1 2px     1 2px     1 2px     1 2px     1 2px     1 2px     1 2px     1 2px     1 2px     1 2px  
                                   1 2px     1 2px     1 3d1+    1 3d1+    1 3d1+    1 3d1+    1 3d1+    1 3d1+    1 3d1+    1 3d1+ 
                                   1 3d1+    1 3d1+    1 4f1+    1 4f3+    1 4f1+    1 4f3+    1 4f1+    1 4f3+    1 4f1+    1 4f3+ 
                                   1 4f1+    1 4f3+    1 4f1+    1 4f3+    1 4f1+    1 4f3+    1 4f1+    1 4f3+    1 5g1+    1 5g3+ 
                                   1 5g1+    1 5g3+    1 5g1+    1 5g3+    1 5g1+    1 5g3+    1 5g1+    1 5g3+    1 5g1+    1 5g3+ 
                                   1 6h1+    1 6h3+    1 6h5+    1 6h1+    1 6h3+    1 6h5+    1 6h1+    1 6h3+    1 6h5+    1 6h1+ 
                                   1 6h3+    1 6h5+    1 7i5+    1 7i3+    1 7i1+    1 7i5+    1 7i3+    1 7i1+ 

   1.2  0.00335     0.077510     0.018340  0.041822  0.106358  0.408880  0.211164 -0.008898  0.001532  0.000013 -0.000006  0.000095
                                 0.000083  0.000580  0.001416  0.004792  0.009148  0.058434  0.201810  0.107403 -0.000003  0.000024
                                -0.000023  0.000361  0.000259  0.000000  0.000363  0.000000  0.003597  0.000000  0.048446  0.000000
                                 0.060783  0.000000  0.000000  0.000000 -0.000001  0.000000  0.000011  0.000000  0.000082  0.000000
                                -0.000003  0.000000  0.011570  0.000000  0.013684  0.000000 -0.000000  0.000000  0.000001  0.000000
                                -0.000250  0.000000  0.000000  0.002084  0.000000  0.000000  0.001832  0.000000  0.000000  0.000000
                                 0.000000  0.000000  0.000000  0.000000  0.000240  0.000000  0.000000 -0.000025

                                   1 2py     1 2py     1 2py     1 2py     1 2py     1 2py     1 2py     1 2py     1 2py     1 2py  
                                   1 2py     1 2py     1 3d1-    1 3d1-    1 3d1-    1 3d1-    1 3d1-    1 3d1-    1 3d1-    1 3d1- 
                                   1 3d1-    1 3d1-    1 4f1-    1 4f3-    1 4f1-    1 4f3-    1 4f1-    1 4f3-    1 4f1-    1 4f3- 
                                   1 4f1-    1 4f3-    1 4f1-    1 4f3-    1 4f1-    1 4f3-    1 4f1-    1 4f3-    1 5g1-    1 5g3- 
                                   1 5g1-    1 5g3-    1 5g1-    1 5g3-    1 5g1-    1 5g3-    1 5g1-    1 5g3-    1 5g1-    1 5g3- 
                                   1 6h1-    1 6h3-    1 6h5-    1 6h1-    1 6h3-    1 6h5-    1 6h1-    1 6h3-    1 6h5-    1 6h1- 
                                   1 6h3-    1 6h5-    1 7i5-    1 7i3-    1 7i1-    1 7i5-    1 7i3-    1 7i1- 

   1.3  0.00335     0.077510     0.018340  0.041822  0.106358  0.408880  0.211164 -0.008898  0.001532  0.000013 -0.000006  0.000095
                                 0.000083  0.000580  0.001416  0.004792  0.009148  0.058434  0.201810  0.107403 -0.000003  0.000024
                                -0.000023  0.000361  0.000259  0.000000  0.000363  0.000000  0.003597  0.000000  0.048446  0.000000
                                 0.060783  0.000000  0.000000  0.000000 -0.000001  0.000000  0.000011  0.000000  0.000082  0.000000
                                -0.000003  0.000000  0.011570  0.000000  0.013684  0.000000 -0.000000  0.000000  0.000001  0.000000
                                -0.000250  0.000000  0.000000  0.002084  0.000000  0.000000  0.001832  0.000000  0.000000  0.000000
                                 0.000000  0.000000  0.000000  0.000000  0.000240  0.000000  0.000000 -0.000025

                                   1 1s      1 1s      1 1s      1 1s      1 1s      1 1s      1 1s      1 1s      1 1s      1 1s   
                                   1 1s      1 1s      1 1s      1 2pz     1 2pz     1 2pz     1 2pz     1 2pz     1 2pz     1 2pz  
                                   1 2pz     1 2pz     1 2pz     1 2pz     1 2pz     1 3d0     1 3d2+    1 3d0     1 3d2+    1 3d0  
                                   1 3d2+    1 3d0     1 3d2+    1 3d0     1 3d2+    1 3d0     1 3d2+    1 3d0     1 3d2+    1 3d0  
                                   1 3d2+    1 3d0     1 3d2+    1 3d0     1 3d2+    1 4f0     1 4f2+    1 4f0     1 4f2+    1 4f0  
                                   1 4f2+    1 4f0     1 4f2+    1 4f0     1 4f2+    1 4f0     1 4f2+    1 4f0     1 4f2+    1 4f0  
                                   1 4f2+    1 5g0     1 5g4+    1 5g2+    1 5g0     1 5g4+    1 5g2+    1 5g0     1 5g4+    1 5g2+ 
                                   1 5g0     1 5g4+    1 5g2+    1 5g0     1 5g4+    1 5g2+    1 5g0     1 5g4+    1 5g2+    1 6h2+ 
                                   1 6h4+    1 6h0     1 6h2+    1 6h4+    1 6h0     1 6h2+    1 6h4+    1 6h0     1 6h2+    1 6h4+ 
                                   1 6h0     1 7i6+    1 7i4+    1 7i2+    1 7i0     1 7i6+    1 7i4+    1 7i2+    1 7i0  

   1.5  2.00000    -2.478442     0.687580 -0.001077  0.291150  0.104530 -0.000078  0.008696  0.000251 -0.000146  0.000001 -0.000004
                                 0.000021 -0.000032  0.000110 -0.000073  0.000133 -0.001760  0.007616  0.000906 -0.000152 -0.000013
                                 0.000000  0.000000  0.000002  0.000002  0.000013 -0.000094  0.000000  0.000221  0.000000 -0.000597
                                 0.000000  0.000527  0.000000  0.003912  0.000000  0.000341  0.000000 -0.000000  0.000000  0.000001
                                 0.000000 -0.000003  0.000000  0.000002  0.000000 -0.000009  0.000000  0.000036  0.000000 -0.000273
                                 0.000000  0.001507  0.000000  0.000757  0.000000  0.000000  0.000000 -0.000000  0.000000 -0.000000
                                 0.000000  0.000000  0.000000  0.000000 -0.000052  0.000000  0.000000  0.000423  0.000000  0.000000
                                 0.000335  0.000000  0.000000 -0.000000  0.000000  0.000000 -0.000000  0.000000  0.000000  0.000000
                                 0.000000 -0.000014  0.000000  0.000000  0.000082  0.000000  0.000000  0.000109  0.000000  0.000000
                                 0.000000  0.000000  0.000000  0.000000  0.000010  0.000000  0.000000  0.000000  0.000019

   2.5  0.98620    -0.056958     0.001293 -0.128826 -0.095709 -0.090643  0.309734  0.593360  0.331192  0.019328 -0.000026  0.000074
                                -0.000153  0.000159 -0.000131 -0.004168 -0.009502 -0.022384 -0.072916 -0.040876 -0.000108  0.001702
                                -0.000003  0.000001 -0.000019 -0.000024 -0.000126  0.000018  0.000000 -0.000582  0.000000  0.000387
                                 0.000000 -0.003756  0.000000 -0.015484  0.000000 -0.006746  0.000000  0.000001  0.000000 -0.000003
                                 0.000000  0.000006  0.000000 -0.000034  0.000000 -0.000009  0.000000 -0.000096  0.000000  0.000245
                                 0.000000 -0.004343  0.000000 -0.003732  0.000000 -0.000000  0.000000  0.000000  0.000000 -0.000001
                                 0.000000 -0.000018  0.000000  0.000000  0.000103  0.000000  0.000000 -0.001122  0.000000  0.000000
                                -0.001126  0.000000  0.000000  0.000000  0.000000  0.000000 -0.000000  0.000000  0.000000  0.000000
                                 0.000000  0.000015  0.000000  0.000000 -0.000155  0.000000  0.000000 -0.000295  0.000000  0.000000
                                -0.000000  0.000000  0.000000  0.000000 -0.000029  0.000000  0.000000  0.000000 -0.000006

   3.5  0.00711     0.139799     0.023149 -0.130731 -0.081414 -0.092066  0.664463  0.471681 -0.643181 -0.100541  0.000006 -0.000026
                                 0.000202 -0.000321  0.001307  0.030205  0.058177  0.292578  0.494554  0.296824  0.003717 -0.010502
                                 0.000007  0.000010 -0.000011  0.000183 -0.000235  0.000356  0.000000 -0.007713  0.000000  0.008903
                                 0.000000 -0.002981  0.000000 -0.026476  0.000000  0.033519  0.000000  0.000007  0.000000 -0.000033
                                 0.000000  0.000083  0.000000 -0.000332  0.000000 -0.000233  0.000000 -0.001332  0.000000  0.004654
                                 0.000000 -0.036438  0.000000 -0.009323  0.000000 -0.000001  0.000000  0.000002  0.000000 -0.000014
                                 0.000000 -0.000360  0.000000  0.000000  0.001843  0.000000  0.000000 -0.013732  0.000000  0.000000
                                -0.010005  0.000000  0.000000  0.000000  0.000000  0.000000 -0.000001  0.000000  0.000000  0.000000
                                 0.000000  0.000359  0.000000  0.000000 -0.002210  0.000000  0.000000 -0.005912  0.000000  0.000000
                                -0.000000  0.000000  0.000000  0.000000 -0.000058  0.000000  0.000000  0.000000 -0.001791

                                   1 2px     1 2px     1 2px     1 2px     1 2px     1 2px     1 2px     1 2px     1 2px     1 2px  
                                   1 2px     1 2px     1 3d1+    1 3d1+    1 3d1+    1 3d1+    1 3d1+    1 3d1+    1 3d1+    1 3d1+ 
                                   1 3d1+    1 3d1+    1 4f1+    1 4f3+    1 4f1+    1 4f3+    1 4f1+    1 4f3+    1 4f1+    1 4f3+ 
                                   1 4f1+    1 4f3+    1 4f1+    1 4f3+    1 4f1+    1 4f3+    1 4f1+    1 4f3+    1 5g1+    1 5g3+ 
                                   1 5g1+    1 5g3+    1 5g1+    1 5g3+    1 5g1+    1 5g3+    1 5g1+    1 5g3+    1 5g1+    1 5g3+ 
                                   1 6h1+    1 6h3+    1 6h5+    1 6h1+    1 6h3+    1 6h5+    1 6h1+    1 6h3+    1 6h5+    1 6h1+ 
                                   1 6h3+    1 6h5+    1 7i5+    1 7i3+    1 7i1+    1 7i5+    1 7i3+    1 7i1+ 

   1.6  0.00335     0.090434     0.025854  0.050344  0.208004  0.633401  0.396698  0.005495  0.003089  0.000012  0.000017  0.000047
                                 0.000284  0.000221 -0.001104 -0.001614 -0.008550  0.017988  0.069076  0.055421  0.000000 -0.000004
                                 0.000000 -0.000105 -0.000230  0.000000 -0.001198  0.000000 -0.001549  0.000000  0.004051  0.000000
                                 0.001172  0.000000 -0.000001  0.000000  0.000004  0.000000 -0.000020  0.000000 -0.000166  0.000000
                                -0.000550  0.000000 -0.000193  0.000000 -0.004908  0.000000  0.000000  0.000000 -0.000001  0.000000
                                -0.000080  0.000000  0.000000 -0.000139  0.000000  0.000000 -0.001911  0.000000  0.000000 -0.000000
                                 0.000000  0.000000  0.000000  0.000000  0.000017  0.000000  0.000000 -0.000513

                                   1 2py     1 2py     1 2py     1 2py     1 2py     1 2py     1 2py     1 2py     1 2py     1 2py  
                                   1 2py     1 2py     1 3d1-    1 3d1-    1 3d1-    1 3d1-    1 3d1-    1 3d1-    1 3d1-    1 3d1- 
                                   1 3d1-    1 3d1-    1 4f1-    1 4f3-    1 4f1-    1 4f3-    1 4f1-    1 4f3-    1 4f1-    1 4f3- 
                                   1 4f1-    1 4f3-    1 4f1-    1 4f3-    1 4f1-    1 4f3-    1 4f1-    1 4f3-    1 5g1-    1 5g3- 
                                   1 5g1-    1 5g3-    1 5g1-    1 5g3-    1 5g1-    1 5g3-    1 5g1-    1 5g3-    1 5g1-    1 5g3- 
                                   1 6h1-    1 6h3-    1 6h5-    1 6h1-    1 6h3-    1 6h5-    1 6h1-    1 6h3-    1 6h5-    1 6h1- 
                                   1 6h3-    1 6h5-    1 7i5-    1 7i3-    1 7i1-    1 7i5-    1 7i3-    1 7i1- 

   1.7  0.00335     0.090434     0.025854  0.050344  0.208004  0.633401  0.396698  0.005495  0.003089  0.000012  0.000017  0.000047
                                 0.000284  0.000221 -0.001104 -0.001614 -0.008550  0.017988  0.069076  0.055421  0.000000 -0.000004
                                 0.000000 -0.000105 -0.000230  0.000000 -0.001198  0.000000 -0.001549  0.000000  0.004051  0.000000
                                 0.001172  0.000000 -0.000001  0.000000  0.000004  0.000000 -0.000020  0.000000 -0.000166  0.000000
                                -0.000550  0.000000 -0.000193  0.000000 -0.004908  0.000000  0.000000  0.000000 -0.000001  0.000000
                                -0.000080  0.000000  0.000000 -0.000139  0.000000  0.000000 -0.001911  0.000000  0.000000 -0.000000
                                 0.000000  0.000000  0.000000  0.000000  0.000017  0.000000  0.000000 -0.000513
 

 EXTRA SYMMETRY OF MOS IN SYMMETRY 1:   1 1 1 1 1 1 2 1 1 1   2 2 1 1 3 1 2 1 2 1   3 2 1 1 2 1 3 2 1 3   4 2 1 1 2 1 2 1 3 1
                                        2 1 3 2 1 2 1 2 1 4   3 1 2 3 1 2 1 3 1 2   1 2 1 2 1 1 1 2 1 2   1 1 1 2 1 3 2 1 1 2
                                        1 1 3 2 1 2 1 1 3 2   1 1 2 1 2 1 1 1 1
 EXTRA SYMMETRY OF MOS IN SYMMETRY 4:   1 1 1 2 1 1 2 1 1 2   1 2 3 1 1 1 2 1 2 1   1 1 3 2 1 2 1 2 1 1   1 1 1 1 2 1 1 2 1 1
                                        2 1 1 1
 EXTRA SYMMETRY OF MOS IN SYMMETRY 5:   1 1 1 1 1 1 1 2 1 1   2 1 2 1 3 1 2 1 2 1   2 1 3 1 3 2 1 1 2 4   1 2 1 2 3 1 3 2 1 2
                                        1 3 1 1 2 2 2 1 1 4   3 2 1 3 1 1 2 3 2 1   1 2 2 1 1 1 1 2 1 2   1 1 1 2 1 3 2 1 1 2
                                        1 1 3 2 1 2 1 1 3 2   1 1 2 1 2 1 1 1 1

 Natural orbital dump at molpro section  2140.2    (Orbital set 2)



 **********************************************************************************************************************************
 DATASETS  * FILE   NREC   LENGTH (MB)   RECORD NAMES
              1      20     4976.70       500      610      700      900      950      970     1000      129      960     1100   
                                          VAR    BASINP    GEOM    SYMINP    ZMAT    AOBASIS   BASIS     P2S    ABASIS      S 
                                         1400     1410     1200     1210     1080     1600     1650     1300     1700     1380   
                                           T        V       H0       H01     AOSYM     SMH    MOLCAS    ERIS     OPER     JKOP   

              2       5        3.02       700     1000      520     2100     2140   
                                         GEOM     BASIS   MCVARS     RHF     MCSCF   

 PROGRAMS   *        TOTAL    CASSCF  UCCSD(T)  RCCSD(T)      RMP2     RCISD       RHF       INT
 CPU TIMES  *      1639.38     56.57    123.52    124.90      5.43     55.48     30.38   1243.00
 REAL TIME  *      2004.45 SEC
 DISK USED  *        20.03 GB      
 **********************************************************************************************************************************

        CASSCF          UCCSD(T)        RCCSD(T)        RMP2            RCISD           RHF-SCF 
    -14.86694371    -14.95693735    -14.95693635    -14.94793312    -14.95568539    -14.86401966
 **********************************************************************************************************************************
 Variable memory released
