 **********************************************************************
                          MRCC program system
 **********************************************************************
 
                              Written by
    Mihaly Kallay, Zoltan Rolik, Jozsef Csontos, Istvan Ladjanszki,
       Lorant Szegedy, Bence Ladoczki, Gyula Samu, Klara Petrov,
        Mate Farkas, Peter Nagy, David Mester, and Bence Hegely
 
        Department of Physical Chemistry and Materials Science
            Budapest University of Technology and Economics
                  Budapest P.O.Box 91, H-1521 Hungary
 
                              www.mrcc.hu

 ************************ 2017-11-09 15:09:07 *************************
 Executing minp...

 Reading input from MINP...
 
 Input file:
 
# TITLE
basis=aCV6Z-KOPUT
uncontract=off
itol=18
scftol=13
cctol=15
#iface=cfour
calc=CCSD(T)
mem=480GB
core=corr
cctol=5
ccmaxit=999
scfmaxit=9999
scftype=ROHF
scfiguess=ao
rohftype=semicanonical
rest=2
#refdet=serialno
#1,2
#3,4

mult=3
symm=6
geom
Li
Li 1 R

R=4.1700

unit=angstroms
 
 
 
 Checking keyword combinations...
 
 Keywords:
 
 active=none
 agrid=ld0006-ld0590
 basis=acv6z-koput
 basopt=off
 bpcompo=0.985
 bpcompv=0.98
 bpdfo=0.985
 bpocc=0.985
 bppdo=0.985
 bppdv=0.98
 bpedo=0.985
 bpedv=0.98
 calc=ccsd(t)
 ccmaxit=999
 ccprog=mrcc
 cctol=15
 charge=0
 cialg=disk
 ciguess=off
 cmpgrp=auto
 core=corr
 corembed=off
 dboc=off
 dendec=cholesky
 dens=0
 dfalg=invsqrt
 dfbasis_cor=none
 dfbasis_scf=none
 dfintran=ovirt
 dft=off
 diag=david
 domrad=10.d0
 drpaalg=fit
 ecp=auto
 edisp=off
 embed=off
 epert=none
 eps=0.975
 excrad=0.d0
 excrad_fin=0.000000000D+00
 freq=off
 gauss=spher
 geom=zmat
 gopt=off
 ghost=none
 gtol=7
 grtol=10
 hamilton=dc
 iface=none
 intalg=auto
 itol=18
 lcorthr=loose
 lccrest=off
 lmp2dens=on
 lnoepso=3e-5
 lnoepsv=1e-6
 localcc=off
 locintrf=disk
 maxact=off
 maxex=0
 bfbasis=none
 mem=480gb
 molden=on
 mulmet=0
 mult=3
 nacto=0
 nactv=0
 naf_cor=off
 naf_scf=off
 nafalg=albe
 naftyp=
 nchol=auto
 ndeps=1e-3
 nstate=1
 nsing=0
 ntrip=0
 occ=
 optalg=
 optmaxit=50
 optetol=1e-6
 optgtol=1e-4
 optstol=1e-3
 orblocc=off
 orbloco=off
 orblocv=off
 osveps=1e-3
 ovirt=off
 ovosnorb=80.0
 ptfreq=0.0
 popul=off
 pressure=100000
 qmmm=off
 refdet=none
 rest=2
 rgrid=log3
 rohftype=semicanonical
 scspe=1.d0
 scsps=1.2d0
 scspt=0.33333333333333
 scfalg=auto
 scfdamp=off
 scfdiis=on
 scfdiis_end=9999
 scfdiis_start=1
 scfdiis_step=1
 scfdtol=17
 scfext=10
 scfiguess=ao
 scflshift=off
 scfmaxit=9999
 scftype=rohf
 scftol=13
 spairtol=1e-4
 symm=6
 talg=occ
 temp=298.15
 test=off
 tprint=off
 uncontract=off
 unit=angs
 verbosity=2
 wpairtol=0.100000000E-05

 ************************ 2017-11-09 15:09:08 *************************
 Executing integ...

 Allocation of 480.0 Gbytes of memory...
 
 Number of atoms:            2
 Charge:                     0
 Number of electrons:        6
 Number of core electrons:   4
 Spin multiplicity:          3
 
                 Cartesian coordinates [bohr]      Atomic mass [AMU]  Z
   1  Li    0.00000000    0.00000000    0.00000000     7.016003       3
   2  Li    7.88015794    0.00000000    0.00000000     7.016003       3
 
 This molecule is linear.
 
 Rotational constants [cm-1]: 
      0.276353275904
 
 Point group: Dxh 
 Computational point group: D2h 
 
 Cartesian coordinates in standard orientation [bohr]
   1  Li    0.00000000    0.00000000   -3.94007897
   2  Li    0.00000000    0.00000000    3.94007897
 
 Nuclear repulsion energy [au]:          1.142109087777
 
 
 Basis set information:
 
 Maximum angular momentum: i
 Maximum number of contracted Gaussians:   13
 Maximum number of primitive Gaussians:    22
 Spherical harmonic GTOs are used.
 
    1  Li acv6z-koput [ 22s 15p 10d 8f 6g 4h 2i | 13s 12p 10d 8f 6g 4h 2i ]
    2  Li acv6z-koput [ 22s 15p 10d 8f 6g 4h 2i | 13s 12p 10d 8f 6g 4h 2i ]
 
 Total number of basis functions:   558
 
 
 Character table for point group D2h:
 
          E  C2z C2y C2x  i  Qxy Qxz Qyz 
    Ag    1   1   1   1   1   1   1   1
    B1g   1   1  -1  -1   1   1  -1  -1
    B2g   1  -1   1  -1   1  -1   1  -1
    B3g   1  -1  -1   1   1  -1  -1   1
    Au    1   1   1   1  -1  -1  -1  -1
    B1u   1   1  -1  -1  -1  -1   1   1
    B2u   1  -1   1  -1  -1   1  -1   1
    B3u   1  -1  -1   1  -1   1   1  -1
 
 Number of basis functions per irrep:
    Ag     99
    B1g    44
    B2g    68
    B3g    68
    Au     44
    B1u    99
    B2u    68
    B3u    68
 
 
 Calculation of overlap integrals...
 CPU time [min]:     0.076                   Wall time [min]:     0.033
 Calculation of kinetic energy integrals...
 CPU time [min]:     0.101                   Wall time [min]:     0.034
 Calculation of nuclear attraction integrals...
 CPU time [min]:     0.165                   Wall time [min]:     0.037
 
 Calculation of prescreening integrals...
 CPU time [min]:    12.273                   Wall time [min]:     0.678
 
 Calculation of two-electron integrals...
   1% done.
  12% done.
  37% done.
  59% done.
  83% done.
 100% done.
 CPU time [min]:   622.154                   Wall time [min]:    30.229

 ************************ 2017-11-09 15:39:23 *************************
 Executing scf...

 Allocation of 480.0 Gbytes of memory...
 ======================================================================
 ITERATION STEP   1
 CPU time [min]:     0.119                   Wall time [min]:     0.023
 
 ALPHA OCC:   1   0   0   0   0   1   1   1
 BETA  OCC:   1   0   0   0   0   1   0   0
 ***HARTREE-FOCK ENERGY IN STEP   1 IS     -17.6917018593559625 [AU]
 ======================================================================
 ITERATION STEP   2
 CPU time [min]:     0.986                   Wall time [min]:     0.878
 
 ALPHA OCC:   2   0   0   0   0   2   0   0
 BETA  OCC:   1   0   0   0   0   1   0   0
 ***HARTREE-FOCK ENERGY IN STEP   2 IS      -0.3646003211666511 [AU]
 ======================================================================
 ITERATION STEP   3
 CPU time [min]:     1.903                   Wall time [min]:     1.523
 
 ALPHA OCC:   2   0   0   0   0   2   0   0
 BETA  OCC:   1   0   0   0   0   1   0   0
 ***HARTREE-FOCK ENERGY IN STEP   3 IS     -13.9530214659085967 [AU]
 ======================================================================
 ITERATION STEP   4
 CPU time [min]:     2.821                   Wall time [min]:     2.169
 
 ALPHA OCC:   2   0   0   0   0   2   0   0
 BETA  OCC:   1   0   0   0   0   1   0   0
 ***HARTREE-FOCK ENERGY IN STEP   4 IS     -14.0884540285223849 [AU]
 ======================================================================
 ITERATION STEP   5
 CPU time [min]:     3.725                   Wall time [min]:     2.813
 
 ALPHA OCC:   2   0   0   0   0   2   0   0
 BETA  OCC:   1   0   0   0   0   1   0   0
 ***HARTREE-FOCK ENERGY IN STEP   5 IS     -14.3718556915005813 [AU]
 ======================================================================
 ITERATION STEP   6
 CPU time [min]:     4.595                   Wall time [min]:     3.457
 
 ALPHA OCC:   2   0   0   0   0   2   0   0
 BETA  OCC:   1   0   0   0   0   1   0   0
 ***HARTREE-FOCK ENERGY IN STEP   6 IS     -14.4902082232666771 [AU]
 ======================================================================
 ITERATION STEP   7
 CPU time [min]:     5.454                   Wall time [min]:     4.102
 
 ALPHA OCC:   2   0   0   0   0   2   0   0
 BETA  OCC:   1   0   0   0   0   1   0   0
 ***HARTREE-FOCK ENERGY IN STEP   7 IS     -14.4882170542234974 [AU]
 ======================================================================
 ITERATION STEP   8
 CPU time [min]:     6.286                   Wall time [min]:     4.746
 
 ALPHA OCC:   2   0   0   0   0   2   0   0
 BETA  OCC:   1   0   0   0   0   1   0   0
 ***HARTREE-FOCK ENERGY IN STEP   8 IS     -14.5884521467770956 [AU]
 ======================================================================
 ITERATION STEP   9
 CPU time [min]:     7.255                   Wall time [min]:     5.394
 
 ALPHA OCC:   2   0   0   0   0   2   0   0
 BETA  OCC:   1   0   0   0   0   1   0   0
 ***HARTREE-FOCK ENERGY IN STEP   9 IS     -14.8099504115734639 [AU]
 ======================================================================
 ITERATION STEP  10
 CPU time [min]:     8.137                   Wall time [min]:     6.038
 
 ALPHA OCC:   2   0   0   0   0   2   0   0
 BETA  OCC:   1   0   0   0   0   1   0   0
 ***HARTREE-FOCK ENERGY IN STEP  10 IS     -14.8555012099035366 [AU]
 ======================================================================
 ITERATION STEP  11
 CPU time [min]:     8.987                   Wall time [min]:     6.682
 
 ALPHA OCC:   2   0   0   0   0   2   0   0
 BETA  OCC:   1   0   0   0   0   1   0   0
 ***HARTREE-FOCK ENERGY IN STEP  11 IS     -14.8636099166415061 [AU]
 ======================================================================
 ITERATION STEP  12
 CPU time [min]:     9.936                   Wall time [min]:     7.330
 
 ALPHA OCC:   2   0   0   0   0   2   0   0
 BETA  OCC:   1   0   0   0   0   1   0   0
 ***HARTREE-FOCK ENERGY IN STEP  12 IS     -14.8639485213385196 [AU]
 ======================================================================
 ITERATION STEP  13
 CPU time [min]:    10.825                   Wall time [min]:     7.975
 
 ALPHA OCC:   2   0   0   0   0   2   0   0
 BETA  OCC:   1   0   0   0   0   1   0   0
 ***HARTREE-FOCK ENERGY IN STEP  13 IS     -14.8640008058741859 [AU]
 ======================================================================
 ITERATION STEP  14
 CPU time [min]:    11.680                   Wall time [min]:     8.619
 
 ALPHA OCC:   2   0   0   0   0   2   0   0
 BETA  OCC:   1   0   0   0   0   1   0   0
 ***HARTREE-FOCK ENERGY IN STEP  14 IS     -14.8640170500726025 [AU]
 ======================================================================
 ITERATION STEP  15
 CPU time [min]:    12.604                   Wall time [min]:     9.266
 
 ALPHA OCC:   2   0   0   0   0   2   0   0
 BETA  OCC:   1   0   0   0   0   1   0   0
 ***HARTREE-FOCK ENERGY IN STEP  15 IS     -14.8640194649243487 [AU]
 ======================================================================
 ITERATION STEP  16
 CPU time [min]:    13.437                   Wall time [min]:     9.910
 
 ALPHA OCC:   2   0   0   0   0   2   0   0
 BETA  OCC:   1   0   0   0   0   1   0   0
 ***HARTREE-FOCK ENERGY IN STEP  16 IS     -14.8640194532390097 [AU]
 ======================================================================
 ITERATION STEP  17
 CPU time [min]:    14.259                   Wall time [min]:    10.554
 
 ALPHA OCC:   2   0   0   0   0   2   0   0
 BETA  OCC:   1   0   0   0   0   1   0   0
 ***HARTREE-FOCK ENERGY IN STEP  17 IS     -14.8640195323948454 [AU]
 ======================================================================
 ITERATION STEP  18
 CPU time [min]:    15.075                   Wall time [min]:    11.199
 
 ALPHA OCC:   2   0   0   0   0   2   0   0
 BETA  OCC:   1   0   0   0   0   1   0   0
 ***HARTREE-FOCK ENERGY IN STEP  18 IS     -14.8640195361728633 [AU]
 ======================================================================
 ITERATION STEP  19
 CPU time [min]:    15.949                   Wall time [min]:    11.843
 
 ALPHA OCC:   2   0   0   0   0   2   0   0
 BETA  OCC:   1   0   0   0   0   1   0   0
 ***HARTREE-FOCK ENERGY IN STEP  19 IS     -14.8640195364101597 [AU]
 ======================================================================
 ITERATION STEP  20
 CPU time [min]:    16.786                   Wall time [min]:    12.488
 
 ALPHA OCC:   2   0   0   0   0   2   0   0
 BETA  OCC:   1   0   0   0   0   1   0   0
 ***HARTREE-FOCK ENERGY IN STEP  20 IS     -14.8640195364100496 [AU]
 ======================================================================
 ITERATION STEP  21
 CPU time [min]:    17.685                   Wall time [min]:    13.133
 
 ALPHA OCC:   2   0   0   0   0   2   0   0
 BETA  OCC:   1   0   0   0   0   1   0   0
 ***HARTREE-FOCK ENERGY IN STEP  21 IS     -14.8640195364096162 [AU]
 ======================================================================
 ITERATION STEP  22
 CPU time [min]:    18.549                   Wall time [min]:    13.777
 
 ALPHA OCC:   2   0   0   0   0   2   0   0
 BETA  OCC:   1   0   0   0   0   1   0   0
 ***HARTREE-FOCK ENERGY IN STEP  22 IS     -14.8640195364074792 [AU]
 ======================================================================
 ITERATION STEP  23
 CPU time [min]:    19.383                   Wall time [min]:    14.422
 
 ALPHA OCC:   2   0   0   0   0   2   0   0
 BETA  OCC:   1   0   0   0   0   1   0   0
 ***HARTREE-FOCK ENERGY IN STEP  23 IS     -14.8640195364075485 [AU]
 ======================================================================
 ITERATION STEP  24
 CPU time [min]:    20.276                   Wall time [min]:    15.066
 
 ALPHA OCC:   2   0   0   0   0   2   0   0
 BETA  OCC:   1   0   0   0   0   1   0   0
 ***HARTREE-FOCK ENERGY IN STEP  24 IS     -14.8640195364066035 [AU]
 ======================================================================
 ITERATION STEP  25
 CPU time [min]:    21.147                   Wall time [min]:    15.710
 
 ALPHA OCC:   2   0   0   0   0   2   0   0
 BETA  OCC:   1   0   0   0   0   1   0   0
 ***HARTREE-FOCK ENERGY IN STEP  25 IS     -14.8640195364088061 [AU]
 ======================================================================
 ITERATION STEP  26
 CPU time [min]:    22.002                   Wall time [min]:    16.355
 
 ALPHA OCC:   2   0   0   0   0   2   0   0
 BETA  OCC:   1   0   0   0   0   1   0   0
 ***HARTREE-FOCK ENERGY IN STEP  26 IS     -14.8640195364104510 [AU]
 ======================================================================
 ITERATION STEP  27
 CPU time [min]:    22.842                   Wall time [min]:    16.999
 
 ALPHA OCC:   2   0   0   0   0   2   0   0
 BETA  OCC:   1   0   0   0   0   1   0   0
 ***HARTREE-FOCK ENERGY IN STEP  27 IS     -14.8640195364079819 [AU]
 ======================================================================
 ITERATION STEP  28
 CPU time [min]:    23.675                   Wall time [min]:    17.643
 
 ALPHA OCC:   2   0   0   0   0   2   0   0
 BETA  OCC:   1   0   0   0   0   1   0   0
 ***HARTREE-FOCK ENERGY IN STEP  28 IS     -14.8640195364097085 [AU]
 ======================================================================
 ITERATION STEP  29
 CPU time [min]:    24.557                   Wall time [min]:    18.288
 
 ALPHA OCC:   2   0   0   0   0   2   0   0
 BETA  OCC:   1   0   0   0   0   1   0   0
 ***HARTREE-FOCK ENERGY IN STEP  29 IS     -14.8640195364103107 [AU]
 ======================================================================
 ITERATION STEP  30
 CPU time [min]:    25.409                   Wall time [min]:    18.932
 
 ALPHA OCC:   2   0   0   0   0   2   0   0
 BETA  OCC:   1   0   0   0   0   1   0   0
 ***HARTREE-FOCK ENERGY IN STEP  30 IS     -14.8640195364072536 [AU]
 ======================================================================
 ITERATION STEP  31
 CPU time [min]:    26.247                   Wall time [min]:    19.576
 
 ALPHA OCC:   2   0   0   0   0   2   0   0
 BETA  OCC:   1   0   0   0   0   1   0   0
 ***HARTREE-FOCK ENERGY IN STEP  31 IS     -14.8640195364097227 [AU]
 ======================================================================
 ITERATION STEP  32
 CPU time [min]:    27.073                   Wall time [min]:    20.220
 
 ALPHA OCC:   2   0   0   0   0   2   0   0
 BETA  OCC:   1   0   0   0   0   1   0   0
 ***HARTREE-FOCK ENERGY IN STEP  32 IS     -14.8640195364097654 [AU]
 ======================================================================
 ITERATION STEP  33
 CPU time [min]:    27.891                   Wall time [min]:    20.864
 
 ALPHA OCC:   2   0   0   0   0   2   0   0
 BETA  OCC:   1   0   0   0   0   1   0   0
 ***HARTREE-FOCK ENERGY IN STEP  33 IS     -14.8640195364110124 [AU]
 ======================================================================
 ITERATION STEP  34
 CPU time [min]:    28.781                   Wall time [min]:    21.510
 
 ALPHA OCC:   2   0   0   0   0   2   0   0
 BETA  OCC:   1   0   0   0   0   1   0   0
 ***HARTREE-FOCK ENERGY IN STEP  34 IS     -14.8640195364097760 [AU]
 ======================================================================
 ITERATION STEP  35
 CPU time [min]:    29.621                   Wall time [min]:    22.155
 
 ALPHA OCC:   2   0   0   0   0   2   0   0
 BETA  OCC:   1   0   0   0   0   1   0   0
 ***HARTREE-FOCK ENERGY IN STEP  35 IS     -14.8640195364071719 [AU]
 ======================================================================
 ITERATION STEP  36
 CPU time [min]:    30.523                   Wall time [min]:    22.799
 
 ALPHA OCC:   2   0   0   0   0   2   0   0
 BETA  OCC:   1   0   0   0   0   1   0   0
 ***HARTREE-FOCK ENERGY IN STEP  36 IS     -14.8640195364094954 [AU]
 ======================================================================
 ITERATION STEP  37
 CPU time [min]:    31.394                   Wall time [min]:    23.443
 
 ALPHA OCC:   2   0   0   0   0   2   0   0
 BETA  OCC:   1   0   0   0   0   1   0   0
 ***HARTREE-FOCK ENERGY IN STEP  37 IS     -14.8640195364104901 [AU]
 ======================================================================
 ITERATION STEP  38
 CPU time [min]:    32.254                   Wall time [min]:    24.087
 
 ALPHA OCC:   2   0   0   0   0   2   0   0
 BETA  OCC:   1   0   0   0   0   1   0   0
 ***HARTREE-FOCK ENERGY IN STEP  38 IS     -14.8640195364088257 [AU]
 ======================================================================
 ITERATION STEP  39
 CPU time [min]:    33.104                   Wall time [min]:    24.731
 
 ALPHA OCC:   2   0   0   0   0   2   0   0
 BETA  OCC:   1   0   0   0   0   1   0   0
 ***HARTREE-FOCK ENERGY IN STEP  39 IS     -14.8640195364110692 [AU]
 ======================================================================
 ITERATION STEP  40
 CPU time [min]:    33.945                   Wall time [min]:    25.375
 
 ALPHA OCC:   2   0   0   0   0   2   0   0
 BETA  OCC:   1   0   0   0   0   1   0   0
 ***HARTREE-FOCK ENERGY IN STEP  40 IS     -14.8640195364096002 [AU]
 ======================================================================
 ITERATION STEP  41
 CPU time [min]:    34.772                   Wall time [min]:    26.019
 
 ALPHA OCC:   2   0   0   0   0   2   0   0
 BETA  OCC:   1   0   0   0   0   1   0   0
 ***HARTREE-FOCK ENERGY IN STEP  41 IS     -14.8640195364089145 [AU]
 ======================================================================
 ITERATION STEP  42
 CPU time [min]:    35.598                   Wall time [min]:    26.663
 
 ALPHA OCC:   2   0   0   0   0   2   0   0
 BETA  OCC:   1   0   0   0   0   1   0   0
 ***HARTREE-FOCK ENERGY IN STEP  42 IS     -14.8640195364071044 [AU]
 ======================================================================
 ITERATION STEP  43
 CPU time [min]:    36.508                   Wall time [min]:    27.307
 
 ALPHA OCC:   2   0   0   0   0   2   0   0
 BETA  OCC:   1   0   0   0   0   1   0   0
 ***HARTREE-FOCK ENERGY IN STEP  43 IS     -14.8640195364087493 [AU]
 ======================================================================
 ITERATION STEP  44
 CPU time [min]:    37.394                   Wall time [min]:    27.951
 
 ALPHA OCC:   2   0   0   0   0   2   0   0
 BETA  OCC:   1   0   0   0   0   1   0   0
 ***HARTREE-FOCK ENERGY IN STEP  44 IS     -14.8640195364101046 [AU]
 ======================================================================
 ITERATION STEP  45
 CPU time [min]:    38.250                   Wall time [min]:    28.595
 
 ALPHA OCC:   2   0   0   0   0   2   0   0
 BETA  OCC:   1   0   0   0   0   1   0   0
 ***HARTREE-FOCK ENERGY IN STEP  45 IS     -14.8640195364094581 [AU]
 ======================================================================
 ITERATION STEP  46
 CPU time [min]:    39.097                   Wall time [min]:    29.239
 
 ALPHA OCC:   2   0   0   0   0   2   0   0
 BETA  OCC:   1   0   0   0   0   1   0   0
 ***HARTREE-FOCK ENERGY IN STEP  46 IS     -14.8640195364077066 [AU]
 ======================================================================
 ITERATION STEP  47
 CPU time [min]:    39.938                   Wall time [min]:    29.883
 
 ALPHA OCC:   2   0   0   0   0   2   0   0
 BETA  OCC:   1   0   0   0   0   1   0   0
 ***HARTREE-FOCK ENERGY IN STEP  47 IS     -14.8640195364086640 [AU]
 ======================================================================
 ITERATION STEP  48
 CPU time [min]:    40.757                   Wall time [min]:    30.527
 
 ALPHA OCC:   2   0   0   0   0   2   0   0
 BETA  OCC:   1   0   0   0   0   1   0   0
 ***HARTREE-FOCK ENERGY IN STEP  48 IS     -14.8640195364105665 [AU]
 ======================================================================
 ITERATION STEP  49
 CPU time [min]:    41.658                   Wall time [min]:    31.171
 
 ALPHA OCC:   2   0   0   0   0   2   0   0
 BETA  OCC:   1   0   0   0   0   1   0   0
 ***HARTREE-FOCK ENERGY IN STEP  49 IS     -14.8640195364074597 [AU]
 ======================================================================
 ITERATION STEP  50
 CPU time [min]:    42.548                   Wall time [min]:    31.815
 
 ALPHA OCC:   2   0   0   0   0   2   0   0
 BETA  OCC:   1   0   0   0   0   1   0   0
 ***HARTREE-FOCK ENERGY IN STEP  50 IS     -14.8640195364101615 [AU]
 ======================================================================
 ITERATION STEP  51
 CPU time [min]:    43.435                   Wall time [min]:    32.459
 
 ALPHA OCC:   2   0   0   0   0   2   0   0
 BETA  OCC:   1   0   0   0   0   1   0   0
 ***HARTREE-FOCK ENERGY IN STEP  51 IS     -14.8640195364101420 [AU]
 ======================================================================
 ITERATION STEP  52
 CPU time [min]:    44.293                   Wall time [min]:    33.103
 
 ALPHA OCC:   2   0   0   0   0   2   0   0
 BETA  OCC:   1   0   0   0   0   1   0   0
 ***HARTREE-FOCK ENERGY IN STEP  52 IS     -14.8640195364105399 [AU]
 ======================================================================
 ITERATION STEP  53
 CPU time [min]:    45.157                   Wall time [min]:    33.748
 
 ALPHA OCC:   2   0   0   0   0   2   0   0
 BETA  OCC:   1   0   0   0   0   1   0   0
 ***HARTREE-FOCK ENERGY IN STEP  53 IS     -14.8640195364096908 [AU]
 ======================================================================
 ITERATION STEP  54
 CPU time [min]:    45.989                   Wall time [min]:    34.392
 
 ALPHA OCC:   2   0   0   0   0   2   0   0
 BETA  OCC:   1   0   0   0   0   1   0   0
 ***HARTREE-FOCK ENERGY IN STEP  54 IS     -14.8640195364090264 [AU]
 ======================================================================
 ITERATION STEP  55
 CPU time [min]:    46.891                   Wall time [min]:    35.039
 
 ALPHA OCC:   2   0   0   0   0   2   0   0
 BETA  OCC:   1   0   0   0   0   1   0   0
 ***HARTREE-FOCK ENERGY IN STEP  55 IS     -14.8640195364087013 [AU]
 ======================================================================
 ITERATION STEP  56
 CPU time [min]:    47.803                   Wall time [min]:    35.684
 
 ALPHA OCC:   2   0   0   0   0   2   0   0
 BETA  OCC:   1   0   0   0   0   1   0   0
 ***HARTREE-FOCK ENERGY IN STEP  56 IS     -14.8640195364111527 [AU]
 ======================================================================
 ITERATION STEP  57
 CPU time [min]:    48.668                   Wall time [min]:    36.328
 
 ALPHA OCC:   2   0   0   0   0   2   0   0
 BETA  OCC:   1   0   0   0   0   1   0   0
 ***HARTREE-FOCK ENERGY IN STEP  57 IS     -14.8640195364109911 [AU]
 ======================================================================
 ITERATION STEP  58
 CPU time [min]:    49.524                   Wall time [min]:    36.972
 
 ALPHA OCC:   2   0   0   0   0   2   0   0
 BETA  OCC:   1   0   0   0   0   1   0   0
 ***HARTREE-FOCK ENERGY IN STEP  58 IS     -14.8640195364074472 [AU]
 ======================================================================
 ITERATION STEP  59
 CPU time [min]:    50.370                   Wall time [min]:    37.616
 
 ALPHA OCC:   2   0   0   0   0   2   0   0
 BETA  OCC:   1   0   0   0   0   1   0   0
 ***HARTREE-FOCK ENERGY IN STEP  59 IS     -14.8640195364099625 [AU]
 ======================================================================
 ITERATION STEP  60
 CPU time [min]:    51.188                   Wall time [min]:    38.260
 
 ALPHA OCC:   2   0   0   0   0   2   0   0
 BETA  OCC:   1   0   0   0   0   1   0   0
 ***HARTREE-FOCK ENERGY IN STEP  60 IS     -14.8640195364088008 [AU]
 ======================================================================
 ITERATION STEP  61
 CPU time [min]:    52.089                   Wall time [min]:    38.904
 
 ALPHA OCC:   2   0   0   0   0   2   0   0
 BETA  OCC:   1   0   0   0   0   1   0   0
 ***HARTREE-FOCK ENERGY IN STEP  61 IS     -14.8640195364104297 [AU]
 ======================================================================
 ITERATION STEP  62
 CPU time [min]:    52.965                   Wall time [min]:    39.548
 
 ALPHA OCC:   2   0   0   0   0   2   0   0
 BETA  OCC:   1   0   0   0   0   1   0   0
 ***HARTREE-FOCK ENERGY IN STEP  62 IS     -14.8640195364117069 [AU]
 ======================================================================
 ITERATION STEP  63
 CPU time [min]:    53.822                   Wall time [min]:    40.192
 
 ALPHA OCC:   2   0   0   0   0   2   0   0
 BETA  OCC:   1   0   0   0   0   1   0   0
 ***HARTREE-FOCK ENERGY IN STEP  63 IS     -14.8640195364121048 [AU]
 ======================================================================
 ITERATION STEP  64
 CPU time [min]:    54.672                   Wall time [min]:    40.837
 
 ALPHA OCC:   2   0   0   0   0   2   0   0
 BETA  OCC:   1   0   0   0   0   1   0   0
 ***HARTREE-FOCK ENERGY IN STEP  64 IS     -14.8640195364078238 [AU]
 ======================================================================
 ITERATION STEP  65
 CPU time [min]:    55.498                   Wall time [min]:    41.481
 
 ALPHA OCC:   2   0   0   0   0   2   0   0
 BETA  OCC:   1   0   0   0   0   1   0   0
 ***HARTREE-FOCK ENERGY IN STEP  65 IS     -14.8640195364094385 [AU]
 ======================================================================
 ITERATION STEP  66
 CPU time [min]:    56.383                   Wall time [min]:    42.125
 
 ALPHA OCC:   2   0   0   0   0   2   0   0
 BETA  OCC:   1   0   0   0   0   1   0   0
 ***HARTREE-FOCK ENERGY IN STEP  66 IS     -14.8640195364100851 [AU]
 ======================================================================
 ITERATION STEP  67
 CPU time [min]:    57.262                   Wall time [min]:    42.769
 
 ALPHA OCC:   2   0   0   0   0   2   0   0
 BETA  OCC:   1   0   0   0   0   1   0   0
 ***HARTREE-FOCK ENERGY IN STEP  67 IS     -14.8640195364085663 [AU]
 ======================================================================
 ITERATION STEP  68
 CPU time [min]:    58.129                   Wall time [min]:    43.413
 
 ALPHA OCC:   2   0   0   0   0   2   0   0
 BETA  OCC:   1   0   0   0   0   1   0   0
 ***HARTREE-FOCK ENERGY IN STEP  68 IS     -14.8640195364087848 [AU]
 ======================================================================
 ITERATION STEP  69
 CPU time [min]:    58.974                   Wall time [min]:    44.057
 
 ALPHA OCC:   2   0   0   0   0   2   0   0
 BETA  OCC:   1   0   0   0   0   1   0   0
 ***HARTREE-FOCK ENERGY IN STEP  69 IS     -14.8640195364090069 [AU]
 ======================================================================
 ITERATION STEP  70
 CPU time [min]:    59.808                   Wall time [min]:    44.701
 
 ALPHA OCC:   2   0   0   0   0   2   0   0
 BETA  OCC:   1   0   0   0   0   1   0   0
 ***HARTREE-FOCK ENERGY IN STEP  70 IS     -14.8640195364093390 [AU]
 ======================================================================
 ITERATION STEP  71
 CPU time [min]:    60.633                   Wall time [min]:    45.345
 
 ALPHA OCC:   2   0   0   0   0   2   0   0
 BETA  OCC:   1   0   0   0   0   1   0   0
 ***HARTREE-FOCK ENERGY IN STEP  71 IS     -14.8640195364089323 [AU]
 ======================================================================
 ITERATION STEP  72
 CPU time [min]:    61.447                   Wall time [min]:    45.989
 
 ALPHA OCC:   2   0   0   0   0   2   0   0
 BETA  OCC:   1   0   0   0   0   1   0   0
 ***HARTREE-FOCK ENERGY IN STEP  72 IS     -14.8640195364064915 [AU]
 ======================================================================
 ITERATION STEP  73
 CPU time [min]:    62.342                   Wall time [min]:    46.633
 
 ALPHA OCC:   2   0   0   0   0   2   0   0
 BETA  OCC:   1   0   0   0   0   1   0   0
 ***HARTREE-FOCK ENERGY IN STEP  73 IS     -14.8640195364098009 [AU]
 ======================================================================
 ITERATION STEP  74
 CPU time [min]:    63.254                   Wall time [min]:    47.278
 
 ALPHA OCC:   2   0   0   0   0   2   0   0
 BETA  OCC:   1   0   0   0   0   1   0   0
 ***HARTREE-FOCK ENERGY IN STEP  74 IS     -14.8640195364077936 [AU]
 ======================================================================
 ITERATION STEP  75
 CPU time [min]:    64.090                   Wall time [min]:    47.922
 
 ALPHA OCC:   2   0   0   0   0   2   0   0
 BETA  OCC:   1   0   0   0   0   1   0   0
 ***HARTREE-FOCK ENERGY IN STEP  75 IS     -14.8640195364121155 [AU]
 ======================================================================
 ITERATION STEP  76
 CPU time [min]:    64.910                   Wall time [min]:    48.566
 
 ALPHA OCC:   2   0   0   0   0   2   0   0
 BETA  OCC:   1   0   0   0   0   1   0   0
 ***HARTREE-FOCK ENERGY IN STEP  76 IS     -14.8640195364117744 [AU]
 ======================================================================
 ITERATION STEP  77
 CPU time [min]:    65.888                   Wall time [min]:    49.214
 
 ALPHA OCC:   2   0   0   0   0   2   0   0
 BETA  OCC:   1   0   0   0   0   1   0   0
 ***HARTREE-FOCK ENERGY IN STEP  77 IS     -14.8640195364099093 [AU]
 ======================================================================
 ITERATION STEP  78
 CPU time [min]:    66.769                   Wall time [min]:    49.859
 
 ALPHA OCC:   2   0   0   0   0   2   0   0
 BETA  OCC:   1   0   0   0   0   1   0   0
 ***HARTREE-FOCK ENERGY IN STEP  78 IS     -14.8640195364093852 [AU]
 ======================================================================
 ITERATION STEP  79
 CPU time [min]:    67.617                   Wall time [min]:    50.503
 
 ALPHA OCC:   2   0   0   0   0   2   0   0
 BETA  OCC:   1   0   0   0   0   1   0   0
 ***HARTREE-FOCK ENERGY IN STEP  79 IS     -14.8640195364066141 [AU]
 ======================================================================
 ITERATION STEP  80
 CPU time [min]:    68.454                   Wall time [min]:    51.147
 
 ALPHA OCC:   2   0   0   0   0   2   0   0
 BETA  OCC:   1   0   0   0   0   1   0   0
 ***HARTREE-FOCK ENERGY IN STEP  80 IS     -14.8640195364097867 [AU]
 ======================================================================
 ITERATION STEP  81
 CPU time [min]:    69.287                   Wall time [min]:    51.791
 
 ALPHA OCC:   2   0   0   0   0   2   0   0
 BETA  OCC:   1   0   0   0   0   1   0   0
 ***HARTREE-FOCK ENERGY IN STEP  81 IS     -14.8640195364095629 [AU]
 ======================================================================
 ITERATION STEP  82
 CPU time [min]:    70.171                   Wall time [min]:    52.435
 
 ALPHA OCC:   2   0   0   0   0   2   0   0
 BETA  OCC:   1   0   0   0   0   1   0   0
 ***HARTREE-FOCK ENERGY IN STEP  82 IS     -14.8640195364119290 [AU]
 ======================================================================
 ITERATION STEP  83
 CPU time [min]:    71.046                   Wall time [min]:    53.079
 
 ALPHA OCC:   2   0   0   0   0   2   0   0
 BETA  OCC:   1   0   0   0   0   1   0   0
 ***HARTREE-FOCK ENERGY IN STEP  83 IS     -14.8640195364097778 [AU]
 ======================================================================
 ITERATION STEP  84
 CPU time [min]:    71.916                   Wall time [min]:    53.724
 
 ALPHA OCC:   2   0   0   0   0   2   0   0
 BETA  OCC:   1   0   0   0   0   1   0   0
 ***HARTREE-FOCK ENERGY IN STEP  84 IS     -14.8640195364116039 [AU]
 ======================================================================
 ITERATION STEP  85
 CPU time [min]:    72.760                   Wall time [min]:    54.367
 
 ALPHA OCC:   2   0   0   0   0   2   0   0
 BETA  OCC:   1   0   0   0   0   1   0   0
 ***HARTREE-FOCK ENERGY IN STEP  85 IS     -14.8640195364082039 [AU]
 ======================================================================
 ITERATION STEP  86
 CPU time [min]:    73.595                   Wall time [min]:    55.011
 
 ALPHA OCC:   2   0   0   0   0   2   0   0
 BETA  OCC:   1   0   0   0   0   1   0   0
 ***HARTREE-FOCK ENERGY IN STEP  86 IS     -14.8640195364113534 [AU]
 ======================================================================
 ITERATION STEP  87
 CPU time [min]:    74.418                   Wall time [min]:    55.655
 
 ALPHA OCC:   2   0   0   0   0   2   0   0
 BETA  OCC:   1   0   0   0   0   1   0   0
 ***HARTREE-FOCK ENERGY IN STEP  87 IS     -14.8640195364113890 [AU]
 ======================================================================
 ITERATION STEP  88
 CPU time [min]:    75.386                   Wall time [min]:    56.302
 
 ALPHA OCC:   2   0   0   0   0   2   0   0
 BETA  OCC:   1   0   0   0   0   1   0   0
 ***HARTREE-FOCK ENERGY IN STEP  88 IS     -14.8640195364073158 [AU]
 ======================================================================
 ITERATION STEP  89
 CPU time [min]:    76.210                   Wall time [min]:    56.946
 
 ALPHA OCC:   2   0   0   0   0   2   0   0
 BETA  OCC:   1   0   0   0   0   1   0   0
 ***HARTREE-FOCK ENERGY IN STEP  89 IS     -14.8640195364108738 [AU]
 ======================================================================
 ITERATION STEP  90
 CPU time [min]:    77.032                   Wall time [min]:    57.590
 
 ALPHA OCC:   2   0   0   0   0   2   0   0
 BETA  OCC:   1   0   0   0   0   1   0   0
 ***HARTREE-FOCK ENERGY IN STEP  90 IS     -14.8640195364103125 [AU]
 ======================================================================
 ITERATION STEP  91
 CPU time [min]:    77.930                   Wall time [min]:    58.234
 
 ALPHA OCC:   2   0   0   0   0   2   0   0
 BETA  OCC:   1   0   0   0   0   1   0   0
 ***HARTREE-FOCK ENERGY IN STEP  91 IS     -14.8640195364095593 [AU]
 ======================================================================
 ITERATION STEP  92
 CPU time [min]:    78.811                   Wall time [min]:    58.878
 
 ALPHA OCC:   2   0   0   0   0   2   0   0
 BETA  OCC:   1   0   0   0   0   1   0   0
 ***HARTREE-FOCK ENERGY IN STEP  92 IS     -14.8640195364087528 [AU]
 ======================================================================
 ITERATION STEP  93
 CPU time [min]:    79.698                   Wall time [min]:    59.523
 
 ALPHA OCC:   2   0   0   0   0   2   0   0
 BETA  OCC:   1   0   0   0   0   1   0   0
 ***HARTREE-FOCK ENERGY IN STEP  93 IS     -14.8640195364105008 [AU]
 ======================================================================
 ITERATION STEP  94
 CPU time [min]:    80.537                   Wall time [min]:    60.167
 
 ALPHA OCC:   2   0   0   0   0   2   0   0
 BETA  OCC:   1   0   0   0   0   1   0   0
 ***HARTREE-FOCK ENERGY IN STEP  94 IS     -14.8640195364089944 [AU]
 ======================================================================
 ITERATION STEP  95
 CPU time [min]:    81.438                   Wall time [min]:    60.811
 
 ALPHA OCC:   2   0   0   0   0   2   0   0
 BETA  OCC:   1   0   0   0   0   1   0   0
 ***HARTREE-FOCK ENERGY IN STEP  95 IS     -14.8640195364128438 [AU]
 ======================================================================
 ITERATION STEP  96
 CPU time [min]:    82.347                   Wall time [min]:    61.456
 
 ALPHA OCC:   2   0   0   0   0   2   0   0
 BETA  OCC:   1   0   0   0   0   1   0   0
 ***HARTREE-FOCK ENERGY IN STEP  96 IS     -14.8640195364094083 [AU]
 ======================================================================
 ITERATION STEP  97
 CPU time [min]:    83.225                   Wall time [min]:    62.100
 
 ALPHA OCC:   2   0   0   0   0   2   0   0
 BETA  OCC:   1   0   0   0   0   1   0   0
 ***HARTREE-FOCK ENERGY IN STEP  97 IS     -14.8640195364083816 [AU]
 ======================================================================
 ITERATION STEP  98
 CPU time [min]:    84.059                   Wall time [min]:    62.744
 
 ALPHA OCC:   2   0   0   0   0   2   0   0
 BETA  OCC:   1   0   0   0   0   1   0   0
 ***HARTREE-FOCK ENERGY IN STEP  98 IS     -14.8640195364112984 [AU]
 ======================================================================
 ITERATION STEP  99
 CPU time [min]:    84.881                   Wall time [min]:    63.388
 
 ALPHA OCC:   2   0   0   0   0   2   0   0
 BETA  OCC:   1   0   0   0   0   1   0   0
 ***HARTREE-FOCK ENERGY IN STEP  99 IS     -14.8640195364083638 [AU]
 ======================================================================
 ITERATION STEP 100
 CPU time [min]:    85.778                   Wall time [min]:    64.033
 
 ALPHA OCC:   2   0   0   0   0   2   0   0
 BETA  OCC:   1   0   0   0   0   1   0   0
 ***HARTREE-FOCK ENERGY IN STEP 100 IS     -14.8640195364095433 [AU]
 ======================================================================
 ITERATION STEP 101
 CPU time [min]:    86.654                   Wall time [min]:    64.677
 
 ALPHA OCC:   2   0   0   0   0   2   0   0
 BETA  OCC:   1   0   0   0   0   1   0   0
 ***HARTREE-FOCK ENERGY IN STEP 101 IS     -14.8640195364111456 [AU]
 ======================================================================
 ITERATION STEP 102
 CPU time [min]:    87.511                   Wall time [min]:    65.321
 
 ALPHA OCC:   2   0   0   0   0   2   0   0
 BETA  OCC:   1   0   0   0   0   1   0   0
 ***HARTREE-FOCK ENERGY IN STEP 102 IS     -14.8640195364093373 [AU]
 ======================================================================
 ITERATION STEP 103
 CPU time [min]:    88.354                   Wall time [min]:    65.965
 
 ALPHA OCC:   2   0   0   0   0   2   0   0
 BETA  OCC:   1   0   0   0   0   1   0   0
 ***HARTREE-FOCK ENERGY IN STEP 103 IS     -14.8640195364063494 [AU]
 ======================================================================
 ITERATION STEP 104
 CPU time [min]:    89.186                   Wall time [min]:    66.609
 
 ALPHA OCC:   2   0   0   0   0   2   0   0
 BETA  OCC:   1   0   0   0   0   1   0   0
 ***HARTREE-FOCK ENERGY IN STEP 104 IS     -14.8640195364102556 [AU]
 ======================================================================
 ITERATION STEP 105
 CPU time [min]:    90.087                   Wall time [min]:    67.254
 
 ALPHA OCC:   2   0   0   0   0   2   0   0
 BETA  OCC:   1   0   0   0   0   1   0   0
 ***HARTREE-FOCK ENERGY IN STEP 105 IS     -14.8640195364089180 [AU]
 ======================================================================
 ITERATION STEP 106
 CPU time [min]:    90.980                   Wall time [min]:    67.899
 
 ALPHA OCC:   2   0   0   0   0   2   0   0
 BETA  OCC:   1   0   0   0   0   1   0   0
 ***HARTREE-FOCK ENERGY IN STEP 106 IS     -14.8640195364120871 [AU]
 ======================================================================
 ITERATION STEP 107
 CPU time [min]:    91.810                   Wall time [min]:    68.544
 
 ALPHA OCC:   2   0   0   0   0   2   0   0
 BETA  OCC:   1   0   0   0   0   1   0   0
 ***HARTREE-FOCK ENERGY IN STEP 107 IS     -14.8640195364084402 [AU]
 ======================================================================
 ITERATION STEP 108
 CPU time [min]:    92.700                   Wall time [min]:    69.189
 
 ALPHA OCC:   2   0   0   0   0   2   0   0
 BETA  OCC:   1   0   0   0   0   1   0   0
 ***HARTREE-FOCK ENERGY IN STEP 108 IS     -14.8640195364083940 [AU]
 ======================================================================
 ITERATION STEP 109
 CPU time [min]:    93.551                   Wall time [min]:    69.833
 
 ALPHA OCC:   2   0   0   0   0   2   0   0
 BETA  OCC:   1   0   0   0   0   1   0   0
 ***HARTREE-FOCK ENERGY IN STEP 109 IS     -14.8640195364103374 [AU]
 ======================================================================
 ITERATION STEP 110
 CPU time [min]:    94.378                   Wall time [min]:    70.478
 
 ALPHA OCC:   2   0   0   0   0   2   0   0
 BETA  OCC:   1   0   0   0   0   1   0   0
 ***HARTREE-FOCK ENERGY IN STEP 110 IS     -14.8640195364115026 [AU]
 ======================================================================
 ITERATION STEP 111
 CPU time [min]:    95.275                   Wall time [min]:    71.122
 
 ALPHA OCC:   2   0   0   0   0   2   0   0
 BETA  OCC:   1   0   0   0   0   1   0   0
 ***HARTREE-FOCK ENERGY IN STEP 111 IS     -14.8640195364083070 [AU]
 ======================================================================
 ITERATION STEP 112
 CPU time [min]:    96.143                   Wall time [min]:    71.766
 
 ALPHA OCC:   2   0   0   0   0   2   0   0
 BETA  OCC:   1   0   0   0   0   1   0   0
 ***HARTREE-FOCK ENERGY IN STEP 112 IS     -14.8640195364100496 [AU]
 ======================================================================
 ITERATION STEP 113
 CPU time [min]:    96.998                   Wall time [min]:    72.411
 
 ALPHA OCC:   2   0   0   0   0   2   0   0
 BETA  OCC:   1   0   0   0   0   1   0   0
 ***HARTREE-FOCK ENERGY IN STEP 113 IS     -14.8640195364111598 [AU]
 ======================================================================
 ITERATION STEP 114
 CPU time [min]:    97.866                   Wall time [min]:    73.056
 
 ALPHA OCC:   2   0   0   0   0   2   0   0
 BETA  OCC:   1   0   0   0   0   1   0   0
 ***HARTREE-FOCK ENERGY IN STEP 114 IS     -14.8640195364093710 [AU]
 ======================================================================
 ITERATION STEP 115
 CPU time [min]:    98.743                   Wall time [min]:    73.700
 
 ALPHA OCC:   2   0   0   0   0   2   0   0
 BETA  OCC:   1   0   0   0   0   1   0   0
 ***HARTREE-FOCK ENERGY IN STEP 115 IS     -14.8640195364102450 [AU]
 ======================================================================
 ITERATION STEP 116
 CPU time [min]:    99.599                   Wall time [min]:    74.345
 
 ALPHA OCC:   2   0   0   0   0   2   0   0
 BETA  OCC:   1   0   0   0   0   1   0   0
 ***HARTREE-FOCK ENERGY IN STEP 116 IS     -14.8640195364101739 [AU]
 ======================================================================
 
 SUCCESS...
 THE SCF ITERATION HAS CONVERGED!
 
                   Ag  B1g B2g B3g Au  B1u B2u B3u 
 FINAL ALPHA OCC:   2   0   0   0   0   2   0   0
 FINAL BETA  OCC:   1   0   0   0   0   1   0   0
 
 ***FINAL HARTREE-FOCK ENERGY:    -14.8640195364101739 [AU]
 ***SEMICANONICAL ROHF ENERGY:    -14.8640195364090761 [AU]
 
 RETURNING FROM SCF ALGORITHM
 ======================================================================

 ************************ 2017-11-09 16:55:16 *************************
 Executing ovirt...

 ovirt, the routine of orbital optimization and integral transformation 
Thu Nov  9 16:55:17 EST 2017
 Allocated memory:                  491520  Mb
 UHF calculation! 
 integral transformation: AOs --- MOs (alpha-alpha)
 # of basis functions, # of int. blocks   558     2
 50 % 
100 % 
 second part
 50 %
100 %
 integral transformation is completed! 
 integral transformation: AOs ------ MOs (beta-beta)
 # of basis functions, # of int. blocks   558     2
 50 % 
100 % 
 second part
 50 %
100 %
 integral transformation is completed! 
 integral transformation: AOs ----- MOs (alpha-beta)
 size                1245456                     1
# of basis functions, # of int. blocks   558     2
 integral transformation
======================================== 
Wed Nov 15 17:52:18 EST 2017
  ovirt terminated normally 

 ************************ 2017-11-15 17:52:24 *************************
 Executing goldstone...

 Generation of CC equations in terms of H and T...
 Generation of antisymmetrized Goldstone diagrams...
 Number of diagrams in T^1 equations:    15
 Number of diagrams in T^2 equations:    34
 Number of diagrams in T^3 equations:     2
 Translation of diagrams to factorized equations...
 Optimizing intermediate calculation...
 Number of floating-point operations per iteration step:   9.7872E+11
 Probable CPU time per iteration step (hours):      9.79
 Required memory (Mbytes): *********
 Number of intermediates:                                  49
 Number of intermediates to be stored:                     20
 Length of intermediate file (Mbytes):  184599.5

 ************************ 2017-11-15 17:52:28 *************************
 Executing xmrcc...

 **********************************************************************
 CC(2)(3) calculation 
 
 
 Allocation of****** Mbytes of memory...
 Number of spinorbitals:                  1116
 Number of alpha electrons:                        4
 Number of beta electrons:                         2
 Spin multiplicity:                     2
 z-component of spin:  1.0
 Spatial symmetry:                      6
 Convergence criterion:  1.0E-15
 Construction of occupation graphs...
 Number of                     0 -fold excitations:                      1
 Number of                     1 -fold excitations:                    584
 Number of                     2 -fold excitations:                 474832
 Total number of configurations:                 475417
 Calculation of coupling coefficients...
 Length of intermediate file (Mbytes):  138941.6
 
 ======================================================================
 
 Spin case  1   Alpha:  1   Beta:  2
 Number of excitations:               43326024
 Spin case  2   Alpha:  2   Beta:  1
 Number of excitations:              129479352
 Spin case  3   Alpha:  3   Beta:  0
 Number of excitations:               14260528
 Number of                     3 -fold excitations:              187065904
 
 Memory requirements /Mbyte/: 
               Minimal        Optimal
 Real*8:     109290.4273    757550.0207
 Integer:        64.7993
 Total:      109355.2265    757614.8199
 

 ************************ 2017-11-16 09:46:19 *************************
 Executing goldstone...

 Generation of CC equations in terms of H and T...
 Generation of antisymmetrized Goldstone diagrams...
 Number of diagrams in T^1 equations:    15
 Number of diagrams in T^2 equations:    34
 Number of diagrams in T^3 equations:     2
 Translation of diagrams to factorized equations...
 Optimizing intermediate calculation...
 Number of floating-point operations per iteration step:   9.7872E+11
 Probable CPU time per iteration step (hours):      9.79
 Required memory (Mbytes): *********
 Number of intermediates:                                  49
 Number of intermediates to be stored:                     20
 Length of intermediate file (Mbytes):  184599.5

 ************************ 2017-11-16 09:46:22 *************************
 Executing xmrcc...

 **********************************************************************
 CC(2)(3) calculation 
 
 
 Allocation of****** Mbytes of memory...
 Number of spinorbitals:                  1116
 Number of alpha electrons:                        4
 Number of beta electrons:                         2
 Spin multiplicity:                     2
 z-component of spin:  1.0
 Spatial symmetry:                      6
 Convergence criterion:  1.0E-15
 Construction of occupation graphs...
 Number of                     0 -fold excitations:                      1
 Number of                     1 -fold excitations:                    584
 Number of                     2 -fold excitations:                 474832
 Total number of configurations:                 475417
 Calculation of coupling coefficients...
 Length of intermediate file (Mbytes):  138941.6
 
 ======================================================================
 
 Spin case  1   Alpha:  1   Beta:  2
 Number of excitations:               43326024
 Spin case  2   Alpha:  2   Beta:  1
 Number of excitations:              129479352
 Spin case  3   Alpha:  3   Beta:  0
 Number of excitations:               14260528
 Number of                     3 -fold excitations:              187065904
 
 Memory requirements /Mbyte/: 
               Minimal        Optimal
 Real*8:     109290.4273    757550.0207
 Integer:        64.7993
 Total:      109355.2265    757614.8199
 

 ************************ 2017-11-16 09:47:31 *************************
 Executing mrcc...

 **********************************************************************
 CCSD(T) calculation                                                    
 
 
 OpenMP parallel version is running.
 Number of CPUs:  28
 Allocation of******* Mbytes of memory...
 Number of spinorbitals:1116
 Number of alpha electrons:  4
 Number of beta  electrons:  2
 Spin multiplicity: 2
 z-component of spin:  1.0
 Spatial symmetry: 6
 Convergence criterion:  1.0E-15
 Construction of occupation graphs...
 Number of 0-fold excitations: 1
 Number of 1-fold excitations: 584
 Number of 2-fold excitations: 474832
 Total number of determinants: 475417
 Calculation of coupling coefficients...
 Initial cluster amplitudes are generated.
 Length of intermediate file (Mbytes):  138941.6
 Reading integral list from unit 55...
 Warning! Executing out-of-core algorithm!
 Reading integral list: cycle  1 of  2
 Sorting integrals...
 Reading integral list: cycle  2 of  2
 Sorting integrals...
 Reading integral list: cycle  1 of  2
 Sorting integrals...
 Reading integral list: cycle  2 of  2
 Sorting integrals...
 Reading integral list: cycle  1 of  2
 Sorting integrals...
 Reading integral list: cycle  2 of  2
 Sorting integrals...
 Reading integral list: cycle  1 of  2
 Sorting integrals...
 Reading integral list: cycle  2 of  2
 Sorting integrals...
 Energy of reference determinant [au]:     -14.864019536409
 Calculation of MP denominators...
 
 Starting CC iteration...
 ======================================================================
 Norm of residual vector:     1.52164432
 CPU time [min]:   972.034                   Wall time [min]:  3542.100
 
 Iteration  1  CC energy:   -14.94793358  Energy decrease:   0.08391405
 ======================================================================
 Norm of residual vector:   103.47784714
 CPU time [min]:  1133.462                   Wall time [min]:  4408.651
 
 Iteration  2  CC energy:   -14.94795115  Energy decrease:   0.00001757
 ======================================================================
 Norm of residual vector:  1111.73462427
 CPU time [min]:  1294.212                   Wall time [min]:  5207.403
 
 Iteration  3  CC energy:   -14.94793806  Energy decrease:   0.00001309
 ======================================================================
 Norm of residual vector:  1108.54663598
 CPU time [min]:  1455.174                   Wall time [min]:  6007.933
 
 Iteration  4  CC energy:   -14.95061621  Energy decrease:   0.00267815
 ======================================================================
 Norm of residual vector:  2716.46077135
 CPU time [min]:  1627.359                   Wall time [min]:  7068.937
 
 Iteration  5  CC energy:   -14.95061718  Energy decrease:   0.00000097
 ======================================================================
--- SharcNET Job Epilogue ---
Job ended with signal 1.
               jobid: 1490219
               resid: 2971476
         exit status: 129
      allocated time: 1057280
           user time: 202238
         system time: 171531
peak rss=534672830464; peak vsz=536948449280 (bytes)
atime=1057280; utime=202238; stime=171531; exit=129
