 --invoking executable--
/project1/nike/cfour_v2.00beta_May2019xnmol_noLABBASIS/bin/xjoda


   *************************************************************************
         <<<     CCCCCC     CCCCCC   |||     CCCCCC     CCCCCC   >>>
       <<<      CCC        CCC       |||    CCC        CCC         >>>
      <<<      CCC        CCC        |||   CCC        CCC            >>>
    <<<        CCC        CCC        |||   CCC        CCC              >>>
      <<<      CCC        CCC        |||   CCC        CCC            >>>
       <<<      CCC        CCC       |||    CCC        CCC         >>>
         <<<     CCCCCC     CCCCCC   |||     CCCCCC     CCCCCC   >>>
   *************************************************************************

     ****************************************************************
     * CFOUR Coupled-Cluster techniques for Computational Chemistry *
     ****************************************************************
 

   Department of Chemistry                Institut fuer Physikalische Chemie
   University of Texas at Austin          Universitaet Mainz
   Austin, TX  78712, USA                 D-55099 Mainz, Germany
 
                       Version 2.00beta
 
                     req184                                            
                     Sun Mar  8 17:52:29 EDT 2020                      
                     integer*8 version is running
 
********************************************************************************
*                          Input from ZMAT file                                *
********************************************************************************
TITLE                                                                           
B                                                                               
F 1 R                                                                           
                                                                                
R=2.38617923445                                                                 
                                                                                
*ACES2(CALC=CCSD(T)                                                             
UNITS=BOHR                                                                      
#GEOM=1.262711672*10/5.29177210903_Zhang...Bernath1995orZhangThesis1997         
#COORD=CARTESIAN                                                                
COORD=INTERNAL                                                                  
PRINT=4                                                                         
JODA_PRINT=4                                                                    
INPUT_MRCC=OFF                                                                  
#CC_PROG=MRCC                                                                   
#FROZEN_CORE=ON                                                                 
DROPMO=1>2                                                                      
CONTRACTION=GENERAL                                                             
#CONTRACTION=SEGMENTED                                                          
RELATIVISTIC=OFF                                                                
#EXCITE=EOMEE                                                                   
#ESTATE_CONV=5                                                                  
#ESTATE_SYM=2/2/2/2/2/2/2/2                                                     
XFORM_TOL=18                                                                    
SAVE_INTS=ON                                                                    
SCF_EXPORDER=6                                                                  
SCF_EXPSTART=5                                                                  
#SCF_DAMPING=1000                                                               
SCF_EXTRAPOLATION=ON                                                            
SCF_CONV=12                                                                     
SCF_MAXCYC=99999                                                                
CC_CONV=9                                                                       
CC_MAXCYC=999                                                                   
T3_EXTRAPOL=ON                                                                  
REFERENCE=ROHF                                                                  
CHARGE=+1                                                                       
MULT=2                                                                          
ABCDTYPE=STANDARD                                                               
#OCCUPATION=3-2-2-0-1-0-0-0/3-1-1-0-1-0-0-0                                     
MEM=2                                                                           
MEM_UNIT=GB                                                                     
BASIS=SPECIAL)                                                                  
                                                                                
B:def2-TZVPP                                                                    
F:def2-TZVPP                                                                    
                                                                                
********************************************************************************
  @GTFLGS-W, Keyword #GEOM not known and is ignored.
  @GTFLGS-W, Keyword #COORD not known and is ignored.
  @GTFLGS-W, Keyword #CC_PROG not known and is ignored.
  @GTFLGS-W, Keyword #FROZEN_CORE not known and is ignored.
  @GTFLGS-W, Keyword #CONTRACTION not known and is ignored.
  @GTFLGS-W, Keyword #EXCITE not known and is ignored.
  @GTFLGS-W, Keyword #ESTATE_CONV not known and is ignored.
  @GTFLGS-W, Keyword #ESTATE_SYM not known and is ignored.
  @GTFLGS-W, Keyword #SCF_DAMPING not known and is ignored.
  @GTFLGS-W, Keyword #OCCUPATION not known and is ignored.
    -------------------------------------------------------------------
                    CFOUR Control Parameters 
    -------------------------------------------------------------------
        External           Internal           Value            Units
          Name               Name
    -------------------------------------------------------------------
       ABCDTYPE             IABCDT         STANDARD     [  0]   ***   
       ANHARMONIC           IANHAR         OFF          [  0]   ***   
       ANH_ALGORIT          IANALG         STANDARD     [  0]   ***   
       ANH_DERIVAT          IANDER         SECOND       [  1]   ***   
       ANH_STEPSIZ          ICUBST             50000          x 10-6  
       ANH_SYMMETR          IANHSM         ABELIAN      [  0]   ***   
       AO_LADDERS           IAOLAD         SINGLEPASS   [  1]   ***   
       BASIS                IBASIS         SPECIAL      [  0]   ***   
       BREIT                IBREIT         OFF          [  0]   ***   
       BRUCK_CONV           IBRTOL          10D-  4             ***   
       BRUECKNER            IBRKNR             OFF      [  0]   ***   
       BUFFERSIZE           IBUFFS            600               ***   
       CACHE_RECS           ICHREC             10               ***   
       CALCLEVEL            ICLLVL           CCSD(T)    [ 22]   ***   
       CCORBOPT             ICCORB             OFF      [  0] x 0.01  
       CC_CONV              ICCCNV          10D-  9             ***   
       CC_EXPORDER          ICCEOR              5               ***   
       CC_EXTRAPOL          ICCEXT             DIIS     [  1]   ***   
       CC_MAXCYC            ICCCYC            999              cycles 
       CC_PROGRAM           ICCPRO         VCC          [  0]   ***   
       CHARGE               ICHRGE              1               ***   
       CHOLESKY             ICHOLE         OFF          [  0]   ***   
       CIS_CONV             ICISTL              5               ***   
       COMM_SIZE            IPSIZE            ***               ***   
       CONSTANT             ICONST         OLD          [  1]   ***   
       CONTINUUM            ICONTU         NONE         [  0]   ***   
       CONTRACTION          ICNTYP          GENERAL     [  1]   ***   
       COORDINATES          ICOORD         INTERNAL     [  0]   ***   
       CPHF_CONVER          ICPHFT          10D- 16             ***   
       CPHF_MAXCYC          ICPHFC             64              cycles 
       CUBIC                ICUBIC         OFF          [  0]   ***   
       CURVILINEAR          ICURVY            OFF       [  0]   ***   
       DBOC                 IDBOC          OFF          [  0]   ***   
       DCT                  IDCT           OFF          [  0]   ***   
       DERIV_LEV            IDRLVL            ZERO      [  0]   ***   
       DIAG_MRCC            IEOMST          10D-  0             ***   
       DIFF_TYPE            IDIFTY         RELAXED      [  0]   ***   
       DIRECT               IDIRCT         OFF          [  0]   ***   
       DROPMO               IDRPMO A   1,  2,
                                   B   1,  2,
       ECP                  IECP           OFF          [  0]   ***   
       EIGENVECTOR          IVEC                1               ***   
       EL_ANHARM            IELANH         OFF          [  0]   ***   
       EOMFOLLOW            IEOMSR         ENERGY       [  0]   ***   
       EOM_MRCC             IMRCCE         NEW          [  1]   ***   
       EOM_NONIT            EOMNON         OFF          [  0]   ***   
       EOM_NSING            IEOMSI          10D-  0             ***   
       EOM_NSTATES          IMRCCD         DAVIDSON     [  0]   ***   
       EOM_NTRIP            IEOMTR          10D-  0             ***   
       EOM_ORDER            IEXORD         ENERGY       [  0]   ***   
       ESTATE_CONV          IEXTOL          10D-  5             ***   
       ESTATE_DIAG          IEXDIG         ITERATIVE    [  0]   ***   
       ESTATE_LOCK          IESLOC         ON           [  1]   ***   
       ESTATE_MAXC          IEXMXC             20               ***   
       ESTATE_PROP          IEXPRP         OFF          [  0]   ***   
       EVAL_HESS            IRECAL              0            # of cyc.
       EXCITATION           IEXCIT              0               ***   
       EXCITE               IEXCIT         NONE         [  0]   ***   
       FCGRADNEW            IFCGNW         OFF          [  0]   ***   
       FC_FIELD             IFINFC              0             x 10-6  
       FD_CALTYPE           IFDCAL         GRADONLY     [  0]   ***   
       FD_PROJECT           IFDPRJ         OFF          [  1]   ***   
       FD_STEPSIZE          IDISFD              0            10-4 bohr
       FD_USEGROUP          IFDGRP         FULL         [  0]   ***   
       FILE_RECSIZ          IFLREC              4096           words  
       FINITE_PERT          IFIPER              0             x 10-6  
       FIXGEOM              IFIXGM         OFF          [  0]   ***   
       FOCK                 IFOCK          AO           [  1]   ***   
       FREQ_ALGORI          IVIALG         STANDARD     [  0]   ***   
       FROZEN_CORE          IFROCO         OFF          [  0]   ***   
       FROZEN_VIRT          IFROVI         OFF          [  0]   ***   
       GAMMA_ABCD           IGABCD         STORE        [  0]   ***   
       GAMMA_ABCI           IGABCI         STORE        [  0]   ***   
       GENBAS_1             IGNBS1              0               ***   
       GENBAS_2             IGNBS2              0               ***   
       GENBAS_3             IGNBS3              0               ***   
       GENBAS_4             IGNBS4              0               ***   
       GEO_CONV             ICONTL              5              H/bohr 
       GEO_MAXCYC           IOPTCY             50               ***   
       GEO_MAXSTEP          IMXSTP            300            millibohr
       GEO_METHOD           INR            SINGLE_POINT [  5]   ***   
       GIAO                 IGIAO          OFF          [  1]   ***   
       GIMIC                IGIMIC         OFF          [  0]   ***   
       GRID                 IGRID          OFF          [  0]   ***   
       GRID_ALGO            IGALGO         SERIAL       [  0]   ***   
       GUESS                IGUESS            MOREAD    [  0]   ***   
       HBAR                 IHBAR              OFF      [  0]   ***   
       HESS_TYPE            IHESTP         SCF          [  0]   ***   
       HF2_FILE             IHF2Fl         USE          [  1]   ***   
       HFSTABILITY          ISTABL         OFF          [  0]   ***   
       INCORE               INCORE             OFF      [  0]   ***   
       INPUT_MRCC           IMRCC          OFF          [  0]   ***   
       INTEGRALS            INTTYP             VMOL     [  1]   ***   
       JODA_PRINT           IJPRNT              4               ***   
       LINDEP_TOL           ILINDP              8               ***   
       LINEQ_CONV           IZTACN          10D-  7           cycles  
       LINEQ_EXPOR          ILMAXD              5               ***   
       LINEQ_MAXCY          ILMAXC             50               ***   
       LINEQ_TYPE           ILTYPE         DIIS         [  1]   ***   
       LOCK_ORBOCC          ILOCOC             OFF      [  0]   ***   
       MEMORY_SIZE          IMEMSZ         250000000           words  
       MEM_UNIT             IMEMU          GB           [  3]   ***   
       MRCC                 IMRCCC         OFF          [  0]   ***   
       MULTIPLICTY          IMULTP              2               ***   
       NEGEVAL              IDIE             ABORT      [  0]   ***   
       NEWNORM              INEWNO         OFF          [  0]   ***   
       NON-HF               INONHF              ON      [  1]   ***   
       NTOP_TAMP            ITOPT2             15               ***   
       NUC_MODEL            INUCMO         POINT        [  0]   ***   
       OCCUPATION           IOCCU   ESTIMATED BY SCF 
       OPEN-SHELL           IOPEN          SPIN-ORBITAL [  0]   ***   
       ORBITALS             IORBTP         SEMICANONICAL[  1]   ***   
       PARALLEL             IPARAL         ON           [  1]   ***   
       PARA_INT             IPINTS         ON           [  1]   ***   
       PARA_PRINT           IPPRIN              0               ***   
       PERT_ORB             IPTORB         STANDARD     [  0]   ***   
       POINTS               IGRDFD              0               ***   
       PRINT                IPRNT               4               ***   
       PROPS                IPROPS             OFF      [  0]   ***   
       PROP_INTEGR          IINTYP         INTERNAL     [  0]   ***   
       PSI                  IPSI           OFF          [  0]   ***   
       QUARTIC              IQUART         OFF          [  0]   ***   
       RAMAN_INT            IRAMIN         OFF          [  0]   ***   
       RAMAN_ORB            IRAMRE         UNRELAXED    [  0]   ***   
       RDO                  IRDOFM             OFF      [  0]   ***   
       REFERENCE            IREFNC             ROHF     [  2]   ***   
       RELATIVIST           IRELAT         OFF          [  0]   ***   
       RELAX_DENS           IRDENS             OFF      [  0]   ***   
       RESET_FLAGS          IRESET             OFF      [  0]   ***   
       RESTART_CC           ICCRES         OFF          [  0]   ***   
       ROT_EVEC             ROTVEC              0               ***   
       SAVE_INTS            ISVINT              ON      [  1]   ***   
       SCALE_ON             ISTCRT              0               ***   
       SCF_CONV             ISCFCV          10D- 12             ***   
       SCF_DAMPING          IDAMP               0             x 10-3  
       SCF_EXPORDE          IRPPOR              6               ***   
       SCF_EXPSTAR          IRPPLS              5               ***   
       SCF_EXTRAPO          IRPP                ON      [  1]   ***   
       SCF_MAXCYC           ISCFCY            ***              cycles 
       SCF_NOSTOP           ISCFST         OFF          [  0]   ***   
       SCF_PRINT            ISCFPR              0               ***   
       SD_FIELD             IFINSD              0             x 10-6  
       SEQUENCE             ISEQUE         OFF          [  0]   ***   
       SOPERT               IPERSO         OFF          [  0]   ***   
       SPHERICAL            IDFGHI             ON       [  1]   ***   
       SPINORBIT            ISOCAL         OFF          [  0]   ***   
       SPINROTATIO          ISRCON         OFF          [  0]   ***   
       SPIN_FLIP            ISPFLP         OFF          [  0]   ***   
       SPIN_ORBIT           ISPORB         OFF          [  0]   ***   
       SPIN_SCAL            ISCSMP         OFF          [  0]   ***   
       SUBGROUP             ISUBGP         DEFAULT      [  0]   ***   
       SUBGRPAXIS           ISBXYZ         X            [  0]   ***   
       SYMMETRY             ISYM             ON         [  0]   ***   
       SYM_CHECK            ISYMCK         OVERRIDE     [  1]   ***   
       T3_EXTRAPOL          IT3EXT         ON           [  1]   ***   
       TAMP_SUM             IEVERY              5               ***   
       TESTSUITE            ITESTS         OFF          [  0]   ***   
       THERMOCH             ITHERM         OFF          [  0]   ***   
       TOL_CHOLESK          ITOLCH          10D-  4             ***   
       TRANGRAD             IRESRM         OFF          [  0]   ***   
       TRANS_INV            ITRAIN         USE          [  0]   ***   
       TREAT_PERT           ITREAT         SIMULTANEOUS [  0]   ***   
       UIJ_THRESHO          IUIJTH              1               ***   
       UNITS                IUNITS         BOHR         [  1]   ***   
       UNOS                 IUNOS          OFF          [  0]   ***   
       UPDATE_HESS          IHUPDT         ON           [  1]   ***   
       VIBPHASE             ISETPH         STANDARD     [  0]   ***   
       VIBRATION            IVIB              NO        [  0]   ***   
       VIB_ALGORIT          IGEALG         STANDARD     [  0]   ***   
       VNATORB              IVNORB         OFF          [  0]   ***   
       VTRAN                IVTRAN         FULL/PARTIAL [  0]   ***   
       XFIELD               IXEFLD              0             x 10-6  
       XFORM_TOL            IXFTOL          10D- 18             ***   
       YFIELD               IYEFLD              0             x 10-6  
       ZFIELD               IZEFLD              0             x 10-6  
    -------------------------------------------------------------------
   2 entries found in Z-matrix 
   Job Title : TITLE                                                                           
 Variable names read by FETCHZ
  1           
  2           
  3           
  4 R         
  5           
  6           
 Atomic symbols read by FETCHZ
  1 B    
  2 F    
 Connectivity matrix read by FETCHZ
  1   0
  2   0
  3   0
  4   1
  5   0
  6   0
   There are  1 unique internal coordinates.
   Of these,  0 will be optimized.
   User supplied Z-matrix: 
--------------------------------------------------------------------------------
       SYMBOL    BOND      LENGTH    ANGLE     ANGLE     DIHED     ANGLE
                  TO      (ANGST)    WRT      (DEG)      WRT      (DEG)
--------------------------------------------------------------------------------
        B    
        F          1         R    
                  *Initial values for internal coordinates* 
                      Name             Value
                        R               2.3861792345
--------------------------------------------------------------------------------
  1  B          5    11.00931
  2  F          9    18.99840
   11.0093054000
   18.9984032200
 After translation to center of mass coordinates 
        0.000000000000    0.000000000000   -1.510731653168
        0.000000000000    0.000000000000    0.875447581282
  Inertia tensor (amu*bohr**2)
   39.68719    0.00000    0.00000
    0.00000   39.68719    0.00000
    0.00000    0.00000    0.00000
    Inertia tensor:
       39.687186313550    0.000000000000    0.000000000000
        0.000000000000   39.687186313550    0.000000000000
        0.000000000000    0.000000000000    0.000000000000
    Principal axis orientation for molecular system: 
        0.000000000000    0.000000000000    1.510731653168
        0.000000000000    0.000000000000   -0.875447581282
    Diagonalized inertia tensor:
       39.687186313550    0.000000000000    0.000000000000
        0.000000000000   39.687186313550    0.000000000000
        0.000000000000    0.000000000000    0.000000000000
    Eigenvectors of inertia tensor: 
        1.000000000000    0.000000000000    0.000000000000
        0.000000000000    1.000000000000    0.000000000000
        0.000000000000    0.000000000000   -1.000000000000
 factor:   60.1997200000000     
   Rotational constants (in cm-1): 
          1.5168553277             1.5168553277
   Rotational constants (in MHz): 
      45474.1850820964         45474.1850820964
  @SYMMETRY-I, Handedness of inertial frame:-1.00000
  @SYMMETRY-I, Sense of inertial frame y-axis will be changed.
  @SYMMETRY-I, The symmetry group is 2-fold degenerate.
  @SYMMETRY-I, The molecule belongs to a point group with doubly degenerate representations.
  @SYMMETRY-I, The molecule is linear.
   Principal axis orientation for molecule:
        0.000000000000    0.000000000000    1.510731653168
        0.000000000000    0.000000000000   -0.875447581282
   Rotation about  3 is a valid symmetry operation 
   Reflection in plane  2 is a valid symmetry operation.
   Reflection in plane  1 is a valid symmetry operation.
  Symmetry bits:    3   4   0
********************************************************************************
   The full molecular point group is CXv .
   The largest Abelian subgroup of the full molecular point group is C2v .
   The computational point group is C2v .
********************************************************************************
--------------------------------------------------------------------------------
   Analysis of internal coordinates specified by Z-matrix 
--------------------------------------------------------------------------------
   *The nuclear repulsion energy is   18.858600121198450 a.u.
   *There is   1 degree of freedom within the tot. symm. molecular subspace.
   *Z-matrix requests optimization of   0 coordinates.
   *The optimization is constrained.
   *The following   1 parameters can have non-zero 
    derivatives within the totally symmetric subspace:
             R    [ 1]
   *The following   0 parameters are to be optimized:

   *The following coordinates must be varied in an  unconstrained optimization.
             R    [ 1]
--------------------------------------------------------------------------------
 ----------------------------------------------------------------
 Z-matrix   Atomic            Coordinates (in bohr)
  Symbol    Number           X              Y              Z
 ----------------------------------------------------------------
     B         5         0.00000000     0.00000000     1.51073165
     F         9         0.00000000     0.00000000    -0.87544758
 ----------------------------------------------------------------
   Interatomic distance matrix (Angstroms) 
 
                 B             F    
                [ 1]        [ 2]
  B    [ 1]     0.00000
  F    [ 2]     1.26271     0.00000
  Inertia tensor (amu*bohr**2)
   39.68719    0.00000    0.00000
    0.00000   39.68719    0.00000
    0.00000    0.00000    0.00000
   Rotational constants (in cm-1): 
          1.5168553277             0.0000000000
   Rotational constants (in MHz): 
      45474.1850820964             0.0000000000
  @GTFLGS-W, Keyword #GEOM not known and is ignored.
  @GTFLGS-W, Keyword #COORD not known and is ignored.
  @GTFLGS-W, Keyword #CC_PROG not known and is ignored.
  @GTFLGS-W, Keyword #FROZEN_CORE not known and is ignored.
  @GTFLGS-W, Keyword #CONTRACTION not known and is ignored.
  @GTFLGS-W, Keyword #EXCITE not known and is ignored.
  @GTFLGS-W, Keyword #ESTATE_CONV not known and is ignored.
  @GTFLGS-W, Keyword #ESTATE_SYM not known and is ignored.
  @GTFLGS-W, Keyword #SCF_DAMPING not known and is ignored.
  @GTFLGS-W, Keyword #OCCUPATION not known and is ignored.
  There are   62 basis functions.
 @GEOPT-W, Archive file not created for single-point calculation.
  @CHECKOUT-I, Total execution time (CPU/WALL):        0.49/       2.65 seconds.
--executable xjoda finished with status     0 in        2.80 seconds (walltime).
 --invoking executable--
/project1/nike/cfour_v2.00beta_May2019xnmol_noLABBASIS/bin/xvmol
Running with 1 threads/proc

********************************************************************************
                   INPUT FROM MOL FILE                                          
********************************************************************************
INTGRL        1    0    1    0    0    0    0    0    0
         *** CFOUR Program System (Release V0.1) *** 
TITLE
    2    2 X  Y       0.10E-08              0    0
   9999.00      3.00
          5.00000000    1    4    1    1    1    1
B #1   0.000000000000000   0.000000000000000   1.510731653167859
   11    5
   8564.86606870000       2.283719815500000E-004  0.000000000000000E+000
  0.000000000000000E+000  0.000000000000000E+000  0.000000000000000E+000
   1284.15162630000       1.768257644700000E-003  0.000000000000000E+000
  0.000000000000000E+000  0.000000000000000E+000  0.000000000000000E+000
   292.278716040000       9.140708051599999E-003  0.000000000000000E+000
  0.000000000000000E+000  0.000000000000000E+000  0.000000000000000E+000
   82.7754691760000       3.634263898900000E-002  0.000000000000000E+000
  0.000000000000000E+000  0.000000000000000E+000  0.000000000000000E+000
   27.0179392690000       0.110634584410000       0.000000000000000E+000
  0.000000000000000E+000  0.000000000000000E+000  0.000000000000000E+000
   9.81496196600000       0.233673443210000       0.000000000000000E+000
  0.000000000000000E+000  0.000000000000000E+000  0.000000000000000E+000
   3.93185590590000       0.000000000000000E+000  0.418187779780000     
  0.000000000000000E+000  0.000000000000000E+000  0.000000000000000E+000
   1.65955997120000       0.000000000000000E+000  0.223254737980000     
  0.000000000000000E+000  0.000000000000000E+000  0.000000000000000E+000
  0.357629652390000       0.000000000000000E+000  0.000000000000000E+000
   1.00000000000000       0.000000000000000E+000  0.000000000000000E+000
  0.142462774960000       0.000000000000000E+000  0.000000000000000E+000
  0.000000000000000E+000   1.00000000000000       0.000000000000000E+000
  6.056059476800000E-002  0.000000000000000E+000  0.000000000000000E+000
  0.000000000000000E+000  0.000000000000000E+000   1.00000000000000     
    6    3
   22.4538758030000       5.026557517900000E-003  0.000000000000000E+000
  0.000000000000000E+000
   5.10450583300000       3.280173896500000E-002  0.000000000000000E+000
  0.000000000000000E+000
   1.49860813440000       0.131512307680000       0.000000000000000E+000
  0.000000000000000E+000
  0.509278313150000       0.331971677690000       0.000000000000000E+000
  0.000000000000000E+000
  0.181470777980000       0.000000000000000E+000  0.473143195700000     
  0.000000000000000E+000
  6.462189390400000E-002  0.000000000000000E+000  0.000000000000000E+000
  0.258027839430000     
    2    2
  0.661000000000000        1.00000000000000       0.000000000000000E+000
  0.199000000000000       0.000000000000000E+000   1.00000000000000     
    1    1
  0.490000000000000        1.00000000000000     
          9.00000000    1    4    1    1    1    1
F #2   0.000000000000000   0.000000000000000  -0.875447581282141
   11    5
   35479.1004410000       2.154501488800000E-004  0.000000000000000E+000
  0.000000000000000E+000  0.000000000000000E+000  0.000000000000000E+000
   5318.47289830000       1.670068652700000E-003  0.000000000000000E+000
  0.000000000000000E+000  0.000000000000000E+000  0.000000000000000E+000
   1210.48109750000       8.673321147599999E-003  0.000000000000000E+000
  0.000000000000000E+000  0.000000000000000E+000  0.000000000000000E+000
   342.855181400000       3.504993317500000E-002  0.000000000000000E+000
  0.000000000000000E+000  0.000000000000000E+000  0.000000000000000E+000
   112.019431810000       0.111653201330000       0.000000000000000E+000
  0.000000000000000E+000  0.000000000000000E+000  0.000000000000000E+000
   40.7147402480000       0.259885066470000       0.000000000000000E+000
  0.000000000000000E+000  0.000000000000000E+000  0.000000000000000E+000
   16.0396781110000       0.000000000000000E+000  0.394229668800000     
  0.000000000000000E+000  0.000000000000000E+000  0.000000000000000E+000
   6.50381867400000       0.000000000000000E+000  0.249982385510000     
  0.000000000000000E+000  0.000000000000000E+000  0.000000000000000E+000
   1.54404775090000       0.000000000000000E+000  0.000000000000000E+000
   1.00000000000000       0.000000000000000E+000  0.000000000000000E+000
  0.612234528620000       0.000000000000000E+000  0.000000000000000E+000
  0.000000000000000E+000   1.00000000000000       0.000000000000000E+000
  0.240279796980000       0.000000000000000E+000  0.000000000000000E+000
  0.000000000000000E+000  0.000000000000000E+000   1.00000000000000     
    6    3
   80.2339004830000       6.368599913400000E-003  0.000000000000000E+000
  0.000000000000000E+000
   18.5940107430000       4.430314353000000E-002  0.000000000000000E+000
  0.000000000000000E+000
   5.68679026530000       0.168672487080000       0.000000000000000E+000
  0.000000000000000E+000
   1.95110062940000       0.361663462550000       0.000000000000000E+000
  0.000000000000000E+000
  0.669702112980000       0.000000000000000E+000  0.442029014910000     
  0.000000000000000E+000
  0.216513004100000       0.000000000000000E+000  0.000000000000000E+000
  0.243198757300000     
    2    2
   3.10700000000000        1.00000000000000       0.000000000000000E+000
  0.855000000000000       0.000000000000000E+000   1.00000000000000     
    1    1
   1.91700000000000        1.00000000000000     
FINISH
                                                                                
********************************************************************************

ONE- AND TWO-ELECTRON INTEGRALS OVER SYMMETRY-ADAPTED AOS ARE CALCULATED.


    BASIS FUNCTION NOT NORMALIZED:
    CENTER (AS ORDERED IN MOL FILE): ?
    ANGULAR MOMENTUM TYPE:           S
    OFFSET WITHIN ANGULAR MOMENTUM:  1
    <CHI|CHI>:                       0.1283104948

    BASIS FUNCTION NOT NORMALIZED:
    CENTER (AS ORDERED IN MOL FILE): ?
    ANGULAR MOMENTUM TYPE:           S
    OFFSET WITHIN ANGULAR MOMENTUM:  2
    <CHI|CHI>:                       0.3878061470

    BASIS FUNCTION NOT NORMALIZED:
    CENTER (AS ORDERED IN MOL FILE): ?
    ANGULAR MOMENTUM TYPE:           P
    OFFSET WITHIN ANGULAR MOMENTUM:  1
    <CHI|CHI>:                       0.2018161609

    BASIS FUNCTION NOT NORMALIZED:
    CENTER (AS ORDERED IN MOL FILE): ?
    ANGULAR MOMENTUM TYPE:           P
    OFFSET WITHIN ANGULAR MOMENTUM:  2
    <CHI|CHI>:                       0.2238644836

    BASIS FUNCTION NOT NORMALIZED:
    CENTER (AS ORDERED IN MOL FILE): ?
    ANGULAR MOMENTUM TYPE:           P
    OFFSET WITHIN ANGULAR MOMENTUM:  3
    <CHI|CHI>:                       0.0665783659

    BASIS FUNCTION NOT NORMALIZED:
    CENTER (AS ORDERED IN MOL FILE): ?
    ANGULAR MOMENTUM TYPE:           S
    OFFSET WITHIN ANGULAR MOMENTUM:  1
    <CHI|CHI>:                       0.1470459150

    BASIS FUNCTION NOT NORMALIZED:
    CENTER (AS ORDERED IN MOL FILE): ?
    ANGULAR MOMENTUM TYPE:           S
    OFFSET WITHIN ANGULAR MOMENTUM:  2
    <CHI|CHI>:                       0.3879183687

    BASIS FUNCTION NOT NORMALIZED:
    CENTER (AS ORDERED IN MOL FILE): ?
    ANGULAR MOMENTUM TYPE:           P
    OFFSET WITHIN ANGULAR MOMENTUM:  1
    <CHI|CHI>:                       0.2671601553

    BASIS FUNCTION NOT NORMALIZED:
    CENTER (AS ORDERED IN MOL FILE): ?
    ANGULAR MOMENTUM TYPE:           P
    OFFSET WITHIN ANGULAR MOMENTUM:  2
    <CHI|CHI>:                       0.1953896500

    BASIS FUNCTION NOT NORMALIZED:
    CENTER (AS ORDERED IN MOL FILE): ?
    ANGULAR MOMENTUM TYPE:           P
    OFFSET WITHIN ANGULAR MOMENTUM:  3
    <CHI|CHI>:                       0.0591456356
CARTESIAN GAUSSIANS ARE USED.

2 TYPES OF ATOMS
2 SYMMETRY OPERATIONS

REFLECTION IN THE YZ-PLANE
REFLECTION IN THE XZ-PLANE

INTEGRALS LESS THAN 1e-14 ARE NEGLECTED.

ATOMIC TYPE NUMBER 1:
---------------------

    NUCLEAR CHARGE:                       5
    NUMBER OF SYMMETRY INDEPENDENT ATOMS: 1
    HIGHEST ORBITAL TYPE:                 F

    1 GROUPS OF CGTOS OF S TYPE
    1 GROUPS OF CGTOS OF P TYPE
    1 GROUPS OF CGTOS OF D TYPE
    1 GROUPS OF CGTOS OF F TYPE

    NUCLEAR COORDINATES (IN A.U.) ARE:

    B #1   0.000000000000000   0.000000000000000   1.510731653167859

ATOMIC TYPE NUMBER 2:
---------------------

    NUCLEAR CHARGE:                       9
    NUMBER OF SYMMETRY INDEPENDENT ATOMS: 1
    HIGHEST ORBITAL TYPE:                 F

    1 GROUPS OF CGTOS OF S TYPE
    1 GROUPS OF CGTOS OF P TYPE
    1 GROUPS OF CGTOS OF D TYPE
    1 GROUPS OF CGTOS OF F TYPE

    NUCLEAR COORDINATES (IN A.U.) ARE:

    F #2   0.000000000000000   0.000000000000000  -0.875447581282141

INTERNUCLEAR DISTANCES (A):

    FOR ATOM B #1 (COORDINATES:   0.00000   0.00000   1.51073)

    F #2 1 DISTANCE IS   1.26271

    FOR ATOM F #2 (COORDINATES:   0.00000   0.00000  -0.87545)


GROUP MULTIPLICATION TABLE:

    1 2 3 4
    2 1 4 3
    3 4 1 2
    4 3 2 1

GAUSSIAN BASIS INFORMATION:

ATOM                EXPONENT       COEFFICIENTS

B #1  1  S   
                  1    8564.866069   0.4045407   0.0000000   0.0000000   0.0000000   0.0000000
                  2    1284.151626   0.7547216   0.0000000   0.0000000   0.0000000   0.0000000
                  3     292.278716   1.2856026   0.0000000   0.0000000   0.0000000   0.0000000
                  4      82.775469   1.9843656   0.0000000   0.0000000   0.0000000   0.0000000
                  5      27.017939   2.6086095   0.0000000   0.0000000   0.0000000   0.0000000
                  6       9.814962   2.5781301   0.0000000   0.0000000   0.0000000   0.0000000
                  7       3.931856   0.0000000   1.3363563   0.0000000   0.0000000   0.0000000
                  8       1.659560   0.0000000   0.3735925   0.0000000   0.0000000   0.0000000
                  9       0.357630   0.0000000   0.0000000   0.3295985   0.0000000   0.0000000
                 10       0.142463   0.0000000   0.0000000   0.0000000   0.1652670   0.0000000
                 11       0.060561   0.0000000   0.0000000   0.0000000   0.0000000   0.0870067

B #1  1  X   
                 12      22.453876   0.7795553   0.0000000   0.0000000
                 13       5.104506   0.7985482   0.0000000   0.0000000
                 14       1.498608   0.6918925   0.0000000   0.0000000
                 15       0.509278   0.4531658   0.0000000   0.0000000
                 16       0.181471   0.0000000   0.1688296   0.0000000
                 17       0.064622   0.0000000   0.0000000   0.0464424

B #1  1  Y   
                 18      22.453876   0.7795553   0.0000000   0.0000000
                 19       5.104506   0.7985482   0.0000000   0.0000000
                 20       1.498608   0.6918925   0.0000000   0.0000000
                 21       0.509278   0.4531658   0.0000000   0.0000000
                 22       0.181471   0.0000000   0.1688296   0.0000000
                 23       0.064622   0.0000000   0.0000000   0.0464424

B #1  1  Z   
                 24      22.453876   0.7795553   0.0000000   0.0000000
                 25       5.104506   0.7985482   0.0000000   0.0000000
                 26       1.498608   0.6918925   0.0000000   0.0000000
                 27       0.509278   0.4531658   0.0000000   0.0000000
                 28       0.181471   0.0000000   0.1688296   0.0000000
                 29       0.064622   0.0000000   0.0000000   0.0464424

B #1  1  XX  
                 30       0.661000   1.3814101   0.0000000
                 31       0.199000   0.0000000   0.1690297

B #1  1  XY  
                 32       0.661000   1.3814101   0.0000000
                 33       0.199000   0.0000000   0.1690297

B #1  1  XZ  
                 34       0.661000   1.3814101   0.0000000
                 35       0.199000   0.0000000   0.1690297

B #1  1  YY  
                 36       0.661000   1.3814101   0.0000000
                 37       0.199000   0.0000000   0.1690297

B #1  1  YZ  
                 38       0.661000   1.3814101   0.0000000
                 39       0.199000   0.0000000   0.1690297

B #1  1  ZZ  
                 40       0.661000   1.3814101   0.0000000
                 41       0.199000   0.0000000   0.1690297

B #1  1  F300
                 42       0.490000   1.1453580

B #1  1  F210
                 43       0.490000   1.1453580

B #1  1  F201
                 44       0.490000   1.1453580

B #1  1  F120
                 45       0.490000   1.1453580

B #1  1  F111
                 46       0.490000   1.1453580

B #1  1  F102
                 47       0.490000   1.1453580

B #1  1  F030
                 48       0.490000   1.1453580

B #1  1  F021
                 49       0.490000   1.1453580

B #1  1  F012
                 50       0.490000   1.1453580

B #1  1  F003
                 51       0.490000   1.1453580

F #2  1  S   
                 52   35479.100441   1.0351657   0.0000000   0.0000000   0.0000000   0.0000000
                 53    5318.472898   1.9331170   0.0000000   0.0000000   0.0000000   0.0000000
                 54    1210.481098   3.3081679   0.0000000   0.0000000   0.0000000   0.0000000
                 55     342.855181   5.1904360   0.0000000   0.0000000   0.0000000   0.0000000
                 56     112.019432   7.1453715   0.0000000   0.0000000   0.0000000   0.0000000
                 57      40.714740   7.7853598   0.0000000   0.0000000   0.0000000   0.0000000
                 58      16.039678   0.0000000   3.6156465   0.0000000   0.0000000   0.0000000
                 59       6.503819   0.0000000   1.1649993   0.0000000   0.0000000   0.0000000
                 60       1.544048   0.0000000   0.0000000   0.9872011   0.0000000   0.0000000
                 61       0.612235   0.0000000   0.0000000   0.0000000   0.4932856   0.0000000
                 62       0.240280   0.0000000   0.0000000   0.0000000   0.0000000   0.2445953

F #2  1  X   
                 63      80.233900   4.2174078   0.0000000   0.0000000
                 64      18.594011   4.7174264   0.0000000   0.0000000
                 65       5.686790   4.0849101   0.0000000   0.0000000
                 66       1.951101   2.2998974   0.0000000   0.0000000
                 67       0.669702   0.0000000   0.8635593   0.0000000
                 68       0.216513   0.0000000   0.0000000   0.2105208

F #2  1  Y   
                 69      80.233900   4.2174078   0.0000000   0.0000000
                 70      18.594011   4.7174264   0.0000000   0.0000000
                 71       5.686790   4.0849101   0.0000000   0.0000000
                 72       1.951101   2.2998974   0.0000000   0.0000000
                 73       0.669702   0.0000000   0.8635593   0.0000000
                 74       0.216513   0.0000000   0.0000000   0.2105208

F #2  1  Z   
                 75      80.233900   4.2174078   0.0000000   0.0000000
                 76      18.594011   4.7174264   0.0000000   0.0000000
                 77       5.686790   4.0849101   0.0000000   0.0000000
                 78       1.951101   2.2998974   0.0000000   0.0000000
                 79       0.669702   0.0000000   0.8635593   0.0000000
                 80       0.216513   0.0000000   0.0000000   0.2105208

F #2  1  XX  
                 81       3.107000  20.7284714   0.0000000
                 82       0.855000   0.0000000   2.1672588

F #2  1  XY  
                 83       3.107000  20.7284714   0.0000000
                 84       0.855000   0.0000000   2.1672588

F #2  1  XZ  
                 85       3.107000  20.7284714   0.0000000
                 86       0.855000   0.0000000   2.1672588

F #2  1  YY  
                 87       3.107000  20.7284714   0.0000000
                 88       0.855000   0.0000000   2.1672588

F #2  1  YZ  
                 89       3.107000  20.7284714   0.0000000
                 90       0.855000   0.0000000   2.1672588

F #2  1  ZZ  
                 91       3.107000  20.7284714   0.0000000
                 92       0.855000   0.0000000   2.1672588

F #2  1  F300
                 93       1.917000  24.6547063

F #2  1  F210
                 94       1.917000  24.6547063

F #2  1  F201
                 95       1.917000  24.6547063

F #2  1  F120
                 96       1.917000  24.6547063

F #2  1  F111
                 97       1.917000  24.6547063

F #2  1  F102
                 98       1.917000  24.6547063

F #2  1  F030
                 99       1.917000  24.6547063

F #2  1  F021
                100       1.917000  24.6547063

F #2  1  F012
                101       1.917000  24.6547063

F #2  1  F003
                102       1.917000  24.6547063

SYMMETRY TRANSFORMATION INTO 62 SYMMETRY-ADAPTED BASIS FUNCTIONS

    IRREDUCIBLE REPRESENTATION NUMBER 1

    1    1 B #1 S      1   1.0
    2    2 B #1 S      2   1.0
    3    3 B #1 S      3   1.0
    4    4 B #1 S      4   1.0
    5    5 B #1 S      5   1.0
    6    6 B #1 Z     12   1.0
    7    7 B #1 Z     13   1.0
    8    8 B #1 Z     14   1.0
    9    9 B #1 XX    15  -1.0  21  -1.0  25   2.0
   10   10 B #1 XX    16  -1.0  22  -1.0  26   2.0
   11   11 B #1 YY    15   1.0  21  -1.0
   12   12 B #1 YY    16   1.0  22  -1.0
   13   13 B #1 ZZ    29  -3.0  34  -3.0  36   2.0
   14   14 B #1 ZZ    29   1.0  34  -1.0
   15   15 B #1 F201  37   1.0
   16   16 B #1 F021  38   1.0
   17   17 B #1 F003  39   1.0
   18   18 F #2 S     40   1.0
   19   19 F #2 S     41   1.0
   20   20 F #2 S     48   1.0
   21   21 F #2 S     49   1.0
   22   22 F #2 S     50   1.0
   23   23 F #2 Z     51  -1.0  57  -1.0  61   2.0
   24   24 F #2 Z     52  -1.0  58  -1.0  62   2.0
   25   25 F #2 Z     51   1.0  57  -1.0
   26   26 F #2 XX    52   1.0  58  -1.0
   27   27 F #2 XX    65  -3.0  70  -3.0  72   2.0
   28   28 F #2 YY    65   1.0  70  -1.0
   29   29 F #2 YY     6   1.0
   30   30 F #2 ZZ     7   1.0
   31   31 F #2 ZZ     8   1.0
   32   32 F #2 F201  19   1.0
   33   33 F #2 F021  20   1.0
   34   34 F #2 F003  27  -1.0  30  -1.0  32   4.0

    IRREDUCIBLE REPRESENTATION NUMBER 2

   35    1 B #1 X     27   1.0  30  -3.0
   36    2 B #1 X     42   1.0
   37    3 B #1 X     43   1.0
   38    4 B #1 XZ    44   1.0
   39    5 B #1 XZ    55   1.0
   40    6 B #1 F300  56   1.0
   41    7 B #1 F120  63  -1.0  66  -1.0  68   4.0
   42    8 B #1 F102  63   1.0  66  -3.0
   43    9 F #2 X      9   1.0
   44   10 F #2 X     10   1.0
   45   11 F #2 X     11   1.0
   46   12 F #2 XZ    23   1.0
   47   13 F #2 XZ    24   1.0
   48   14 F #2 F300  28  -1.0  33  -1.0  35   4.0
   49   15 F #2 F120  28   3.0  33  -1.0
   50   16 F #2 F102  45   1.0

    IRREDUCIBLE REPRESENTATION NUMBER 3

   51    1 B #1 Y     46   1.0
   52    2 B #1 Y     47   1.0
   53    3 B #1 Y     59   1.0
   54    4 B #1 YZ    60   1.0
   55    5 B #1 YZ    64  -1.0  69  -1.0  71   4.0
   56    6 B #1 F210  64   3.0  69  -1.0
   57    7 B #1 F030  17   1.0
   58    8 B #1 F012  18   1.0
   59    9 F #2 Y     31   1.0
   60   10 F #2 Y     53   1.0
   61   11 F #2 Y     54   1.0
   62   12 F #2 YZ    67   1.0
   63   13 F #2 YZ  
   64   14 F #2 F210
   65   15 F #2 F030
   66   16 F #2 F012

    IRREDUCIBLE REPRESENTATION NUMBER 4

   67    1 B #1 XY  
   68    2 B #1 XY  
   69    3 B #1 F111
   70    4 F #2 XY  
   71    5 F #2 XY  
   72    6 F #2 F111

NUCLEAR REPULSION ENERGY:   18.8586001212 A.U.

One-electron integrals took 0.017882 seconds

  @TWOEL-I,      53009 INTEGRALS OF SYMMETRY TYPE  I I I I
  @TWOEL-I,     154444 INTEGRALS OF SYMMETRY TYPE  I J I J
  @TWOEL-I,      86758 INTEGRALS OF SYMMETRY TYPE  I I J J
  @TWOEL-I,      86176 INTEGRALS OF SYMMETRY TYPE  I J K L
  @TWOEL-I, TOTAL NUMBER OF 2-E INTEGRALS     380387

Two-electron integrals took 2.173161 seconds

Nuclear repulsion energy: 18.858600121198
--executable xvmol finished with status     0 in        3.51 seconds (walltime).
 --invoking executable--
/project1/nike/cfour_v2.00beta_May2019xnmol_noLABBASIS/bin/xvmol2ja
--executable xvmol2ja finished with status     0 in        0.08 seconds (walltime).
 --invoking executable--
/project1/nike/cfour_v2.00beta_May2019xnmol_noLABBASIS/bin/xvscf
  There are   62 functions in the AO basis.

  There are 4 irreducible representations.

       Irrep        # of functions
         1                 28
         2                 14
         3                 14
         4                  6


  Parameters for SCF calculation: 
        SCF reference function: ROHF  
  Maximum number of iterations: ****
     Full symmetry point group: CXv 
     Computational point group: C2v 
        Initial density matrix: CORE                   
     SCF convergence tolerance: 10**(-12)
  DIIS convergence acceleration:  ON
          Latest start for DIIS:   5
                     DIIS order:   6

  Memory information:     218720 words required.
  Fock matrices are constructed from AO integral file.
 @GETMEM-I,  Allocated       1 MB of main memory.
  Initialization and symmetry analysis required      0.003 seconds.

  @INITGES-I, Occupancies from core Hamiltonian:

          Alpha population by irrep:   5    1    1    0
           Beta population by irrep:   4    1    1    0


 total no. of electrons in initial guess :  0.000000000000000E+000
 total no. of electrons in initial guess :  0.000000000000000E+000
  --------------------------------------------------------------------
  Iteration         Total Energy            Largest Density Difference
  --------------------------------------------------------------------
       0            18.858600121198450              0.0000000000D+00
   current occupation vector 
     5  1  1  0
     4  1  1  0
  processed                  53009  ao basis integrals from 
                    89  buffers.
  processed                  86758  ao basis integrals from 
                   145  buffers.
  processed                 154444  ao basis integrals from 
                   258  buffers.
       1          -109.793932577785384              0.1878428470D+01
   current occupation vector 
     5  1  1  0
     4  1  1  0
  processed                  53009  ao basis integrals from 
                    89  buffers.
  processed                  86758  ao basis integrals from 
                   145  buffers.
  processed                 154444  ao basis integrals from 
                   258  buffers.
       2          -106.881154413835233              0.2681664218D+01
   current occupation vector 
     5  1  1  0
     4  1  1  0
  processed                  53009  ao basis integrals from 
                    89  buffers.
  processed                  86758  ao basis integrals from 
                   145  buffers.
  processed                 154444  ao basis integrals from 
                   258  buffers.
       3          -116.417219732145426              0.2682824194D+01
   current occupation vector 
     5  1  1  0
     4  1  1  0
  processed                  53009  ao basis integrals from 
                    89  buffers.
  processed                  86758  ao basis integrals from 
                   145  buffers.
  processed                 154444  ao basis integrals from 
                   258  buffers.
       4          -109.212224652152102              0.1703128832D+01
   current occupation vector 
     5  1  1  0
     4  1  1  0
 
 sum over diagonal and offdiagdiagonal of C(T)*S*C for irrep
                     1
 -1.565414464721471E-013  4.998299232313809E-013
 reorthoganalization of MOs is carried out
 sum over diagonal and offdiagdiagonal of C(T)*S*C for irrep
                     1
  3.386180225106727E-014  2.162767137220604E-014
 
 sum over diagonal and offdiagdiagonal of C(T)*S*C for irrep
                     2
  1.043609643147647E-014 -2.544337760427261E-014
 reorthoganalization of MOs is carried out
 sum over diagonal and offdiagdiagonal of C(T)*S*C for irrep
                     2
  1.110223024625157E-015 -6.881665446313618E-016
 
 sum over diagonal and offdiagdiagonal of C(T)*S*C for irrep
                     3
  5.384581669432009E-014 -3.919034762241062E-014
 reorthoganalization of MOs is carried out
 sum over diagonal and offdiagdiagonal of C(T)*S*C for irrep
                     3
 -1.554312234475219E-015  2.746811725022575E-015
 
 sum over diagonal and offdiagdiagonal of C(T)*S*C for irrep
                     4
  5.662137425588298E-015 -1.362646974423232E-014
 reorthoganalization of MOs is carried out
 sum over diagonal and offdiagdiagonal of C(T)*S*C for irrep
                     4
  0.000000000000000E+000 -7.415942859800850E-016
  processed                  53009  ao basis integrals from 
                    89  buffers.
  processed                  86758  ao basis integrals from 
                   145  buffers.
  processed                 154444  ao basis integrals from 
                   258  buffers.
       5          -116.998642666344708              0.1699954616D+01
   current occupation vector 
     5  1  1  0
     4  1  1  0
  processed                  53009  ao basis integrals from 
                    89  buffers.
  processed                  86758  ao basis integrals from 
                   145  buffers.
  processed                 154444  ao basis integrals from 
                   258  buffers.
       6          -122.127264003574467              0.6874086456D+00
   current occupation vector 
     5  1  1  0
     4  1  1  0
  processed                  53009  ao basis integrals from 
                    89  buffers.
  processed                  86758  ao basis integrals from 
                   145  buffers.
  processed                 154444  ao basis integrals from 
                   258  buffers.
       7          -123.559614007279563              0.2963203546D+00
   current occupation vector 
     5  1  1  0
     4  1  1  0
  processed                  53009  ao basis integrals from 
                    89  buffers.
  processed                  86758  ao basis integrals from 
                   145  buffers.
  processed                 154444  ao basis integrals from 
                   258  buffers.
       8          -123.790994170582977              0.2979571989D+00
   current occupation vector 
     5  1  1  0
     4  1  1  0
  processed                  53009  ao basis integrals from 
                    89  buffers.
  processed                  86758  ao basis integrals from 
                   145  buffers.
  processed                 154444  ao basis integrals from 
                   258  buffers.
       9          -123.795796245600698              0.2233624367D-01
   current occupation vector 
     5  1  1  0
     4  1  1  0
 
 sum over diagonal and offdiagdiagonal of C(T)*S*C for irrep
                     1
  5.739853037312059E-014 -2.367539952351143E-013
 reorthoganalization of MOs is carried out
 sum over diagonal and offdiagdiagonal of C(T)*S*C for irrep
                     1
 -5.251354906476990E-014  3.532090627745226E-014
 
 sum over diagonal and offdiagdiagonal of C(T)*S*C for irrep
                     2
  5.107025913275720E-015 -5.892172842533067E-015
 reorthoganalization of MOs is carried out
 sum over diagonal and offdiagdiagonal of C(T)*S*C for irrep
                     2
  1.110223024625157E-016 -3.337377574817403E-015
 
 sum over diagonal and offdiagdiagonal of C(T)*S*C for irrep
                     3
  1.298960938811433E-014 -7.031954845169985E-015
 reorthoganalization of MOs is carried out
 sum over diagonal and offdiagdiagonal of C(T)*S*C for irrep
                     3
 -8.881784197001252E-016  1.007594818670001E-015
 
 sum over diagonal and offdiagdiagonal of C(T)*S*C for irrep
                     4
 -7.327471962526033E-015  1.572160912739762E-016
 reorthoganalization of MOs is carried out
 sum over diagonal and offdiagdiagonal of C(T)*S*C for irrep
                     4
 -3.330669073875470E-016  1.389472846675954E-016
  processed                  53009  ao basis integrals from 
                    89  buffers.
  processed                  86758  ao basis integrals from 
                   145  buffers.
  processed                 154444  ao basis integrals from 
                   258  buffers.
      10          -123.795971198815877              0.7978470554D-02
   current occupation vector 
     5  1  1  0
     4  1  1  0
  processed                  53009  ao basis integrals from 
                    89  buffers.
  processed                  86758  ao basis integrals from 
                   145  buffers.
  processed                 154444  ao basis integrals from 
                   258  buffers.
      11          -123.795975262595036              0.2371330755D-02
   current occupation vector 
     5  1  1  0
     4  1  1  0
  processed                  53009  ao basis integrals from 
                    89  buffers.
  processed                  86758  ao basis integrals from 
                   145  buffers.
  processed                 154444  ao basis integrals from 
                   258  buffers.
      12          -123.795975507544242              0.9530432066D-03
   current occupation vector 
     5  1  1  0
     4  1  1  0
  processed                  53009  ao basis integrals from 
                    89  buffers.
  processed                  86758  ao basis integrals from 
                   145  buffers.
  processed                 154444  ao basis integrals from 
                   258  buffers.
      13          -123.795975523183685              0.1356492888D-03
   current occupation vector 
     5  1  1  0
     4  1  1  0
  processed                  53009  ao basis integrals from 
                    89  buffers.
  processed                  86758  ao basis integrals from 
                   145  buffers.
  processed                 154444  ao basis integrals from 
                   258  buffers.
      14          -123.795975523887350              0.3391832038D-04
   current occupation vector 
     5  1  1  0
     4  1  1  0
 
 sum over diagonal and offdiagdiagonal of C(T)*S*C for irrep
                     1
  3.863576125695545E-014 -6.411524459008639E-014
 reorthoganalization of MOs is carried out
 sum over diagonal and offdiagdiagonal of C(T)*S*C for irrep
                     1
  3.697042672001771E-014  2.246336459201240E-013
 
 sum over diagonal and offdiagdiagonal of C(T)*S*C for irrep
                     2
  1.787459069646502E-014 -8.216822384437244E-015
 reorthoganalization of MOs is carried out
 sum over diagonal and offdiagdiagonal of C(T)*S*C for irrep
                     2
  1.554312234475219E-015 -2.246704070614764E-016
 
 sum over diagonal and offdiagdiagonal of C(T)*S*C for irrep
                     3
  1.509903313490213E-014 -2.371251925110778E-015
 reorthoganalization of MOs is carried out
 sum over diagonal and offdiagdiagonal of C(T)*S*C for irrep
                     3
  0.000000000000000E+000 -3.097279309654857E-015
 
 sum over diagonal and offdiagdiagonal of C(T)*S*C for irrep
                     4
 -1.398881011027697E-014 -2.006180594912865E-015
 reorthoganalization of MOs is carried out
 sum over diagonal and offdiagdiagonal of C(T)*S*C for irrep
                     4
  3.330669073875470E-016  1.101840786579128E-015
  processed                  53009  ao basis integrals from 
                    89  buffers.
  processed                  86758  ao basis integrals from 
                   145  buffers.
  processed                 154444  ao basis integrals from 
                   258  buffers.
      15          -123.795975523950503              0.6035991541D-05
   current occupation vector 
     5  1  1  0
     4  1  1  0
  processed                  53009  ao basis integrals from 
                    89  buffers.
  processed                  86758  ao basis integrals from 
                   145  buffers.
  processed                 154444  ao basis integrals from 
                   258  buffers.
      16          -123.795975523952663              0.6732413235D-06
   current occupation vector 
     5  1  1  0
     4  1  1  0
  processed                  53009  ao basis integrals from 
                    89  buffers.
  processed                  86758  ao basis integrals from 
                   145  buffers.
  processed                 154444  ao basis integrals from 
                   258  buffers.
      17          -123.795975523952919              0.9610369839D-07
   current occupation vector 
     5  1  1  0
     4  1  1  0
  processed                  53009  ao basis integrals from 
                    89  buffers.
  processed                  86758  ao basis integrals from 
                   145  buffers.
  processed                 154444  ao basis integrals from 
                   258  buffers.
      18          -123.795975523952748              0.8217565243D-08
   current occupation vector 
     5  1  1  0
     4  1  1  0
  processed                  53009  ao basis integrals from 
                    89  buffers.
  processed                  86758  ao basis integrals from 
                   145  buffers.
  processed                 154444  ao basis integrals from 
                   258  buffers.
      19          -123.795975523953175              0.3873987658D-08
   current occupation vector 
     5  1  1  0
     4  1  1  0
 
 sum over diagonal and offdiagdiagonal of C(T)*S*C for irrep
                     1
  7.494005416219807E-014  3.505382995597175E-014
 reorthoganalization of MOs is carried out
 sum over diagonal and offdiagdiagonal of C(T)*S*C for irrep
                     1
  7.882583474838611E-015  1.450888248626404E-013
 
 sum over diagonal and offdiagdiagonal of C(T)*S*C for irrep
                     2
  3.241851231905457E-014  7.433576976378771E-015
 reorthoganalization of MOs is carried out
 sum over diagonal and offdiagdiagonal of C(T)*S*C for irrep
                     2
 -4.440892098500626E-016  1.881964907264143E-015
 
 sum over diagonal and offdiagdiagonal of C(T)*S*C for irrep
                     3
  5.218048215738236E-014 -2.718024390533683E-014
 reorthoganalization of MOs is carried out
 sum over diagonal and offdiagdiagonal of C(T)*S*C for irrep
                     3
  9.992007221626409E-016 -6.876738626237883E-016
 
 sum over diagonal and offdiagdiagonal of C(T)*S*C for irrep
                     4
 -3.774758283725532E-015  7.533273863654516E-015
 reorthoganalization of MOs is carried out
 sum over diagonal and offdiagdiagonal of C(T)*S*C for irrep
                     4
 -5.551115123125783E-016 -3.181659037794493E-016
  processed                  53009  ao basis integrals from 
                    89  buffers.
  processed                  86758  ao basis integrals from 
                   145  buffers.
  processed                 154444  ao basis integrals from 
                   258  buffers.
      20          -123.795975523952293              0.2369200027D-09
   current occupation vector 
     5  1  1  0
     4  1  1  0
  processed                  53009  ao basis integrals from 
                    89  buffers.
  processed                  86758  ao basis integrals from 
                   145  buffers.
  processed                 154444  ao basis integrals from 
                   258  buffers.
      21          -123.795975523953004              0.8056330603D-10
   current occupation vector 
     5  1  1  0
     4  1  1  0
  processed                  53009  ao basis integrals from 
                    89  buffers.
  processed                  86758  ao basis integrals from 
                   145  buffers.
  processed                 154444  ao basis integrals from 
                   258  buffers.
      22          -123.795975523952578              0.2139802224D-10
   current occupation vector 
     5  1  1  0
     4  1  1  0
  processed                  53009  ao basis integrals from 
                    89  buffers.
  processed                  86758  ao basis integrals from 
                   145  buffers.
  processed                 154444  ao basis integrals from 
                   258  buffers.
      23          -123.795975523953004              0.4095584982D-11
   current occupation vector 
     5  1  1  0
     4  1  1  0

  SCF has converged.

 Density matrix saved to file den.dat
 total alpha spin electron number:   7.00000000000002     
 total  beta spin electron number:   6.00000000000001     
  processed                  53009  ao basis integrals from 
                    89  buffers.
  processed                  86758  ao basis integrals from 
                   145  buffers.
  processed                 154444  ao basis integrals from 
                   258  buffers.
     E(ROHF)=      -123.795975523953032              0.7240319455D-12


       The average multiplicity is    2.0000000
  The expectation value of S**2 is    0.7500000

 @PUTMOS-I, Writing converged MOs to NEWMOS. 
 @PUTMOS-I, Symmetry   1 Full Blocks  7 Partial Blocksize   0
 @PUTMOS-I, Symmetry   2 Full Blocks  3 Partial Blocksize   2
 @PUTMOS-I, Symmetry   3 Full Blocks  3 Partial Blocksize   2
 @PUTMOS-I, Symmetry   4 Full Blocks  1 Partial Blocksize   2
  @DMPJOB-I, Rotating orbitals to semicanonical basis.
             *** Eigenvalues correspond to new basis. ***

--------------------------------------------------------------------------------
Eigenvalue    -26.703779     -8.184429     -2.013199     -1.164720     -1.051950
 Symmetry         SG+           SG+           SG+           SG+            PI    
--------------------------------------------------------------------------------
   1 S        -0.0000077     0.4965197     0.0328370     0.0612825     0.0000000
   1 S         0.0001534     0.5861732     0.0625461     0.1257988     0.0000000
   1 S        -0.0008463     0.0129647    -0.1095906    -0.2725293     0.0000000
   1 S         0.0049487    -0.0042208    -0.0077599    -0.1241836     0.0000000
   1 S        -0.0004336     0.0015174    -0.0027693     0.0049008     0.0000000
   1 PX        0.0000000     0.0000000     0.0000000     0.0000000     0.1269090
   1 PY        0.0000000     0.0000000     0.0000000     0.0000000     0.0000000
   1 PZ        0.0007192     0.0000520     0.1038084     0.1599098     0.0000000
   1 PX        0.0000000     0.0000000     0.0000000     0.0000000     0.0814466
   1 PY        0.0000000     0.0000000     0.0000000     0.0000000     0.0000000
   1 PZ       -0.0031194    -0.0007411     0.0180458     0.0503116     0.0000000
   1 PX        0.0000000     0.0000000     0.0000000     0.0000000    -0.0012357
   1 PY        0.0000000     0.0000000     0.0000000     0.0000000     0.0000000
   1 PZ       -0.0000620     0.0001217    -0.0012238    -0.0085166     0.0000000
   1 DX2       0.0001245    -0.0001270     0.0075056     0.0085031     0.0000000
   1 DXY       0.0000000     0.0000000     0.0000000     0.0000000     0.0000000
   1 DXZ       0.0000000     0.0000000     0.0000000     0.0000000    -0.0359994
   1 DY2       0.0001245    -0.0001270     0.0075056     0.0085031     0.0000000
   1 DYZ       0.0000000     0.0000000     0.0000000     0.0000000     0.0000000
   1 DZZ      -0.0002491     0.0002539    -0.0150112    -0.0170061     0.0000000
   1 DX2      -0.0003084    -0.0001315     0.0020176     0.0042069     0.0000000
   1 DXY       0.0000000     0.0000000     0.0000000     0.0000000     0.0000000
   1 DXZ       0.0000000     0.0000000     0.0000000     0.0000000    -0.0323110
   1 DY2      -0.0003084    -0.0001315     0.0020176     0.0042069     0.0000000
   1 DYZ       0.0000000     0.0000000     0.0000000     0.0000000     0.0000000
   1 DZZ       0.0006169     0.0002629    -0.0040351    -0.0084137     0.0000000
   1 FX3       0.0000000     0.0000000     0.0000000     0.0000000    -0.0025527
   1 FX2Y      0.0000000     0.0000000     0.0000000     0.0000000     0.0000000
   1 FX2Z      0.0000129     0.0001154    -0.0030589    -0.0023979     0.0000000
   1 FXY2      0.0000000     0.0000000     0.0000000     0.0000000    -0.0025527
   1 FXYZ      0.0000000     0.0000000     0.0000000     0.0000000     0.0000000
   1 FXZ2      0.0000000     0.0000000     0.0000000     0.0000000     0.0102107
   1 FY3       0.0000000     0.0000000     0.0000000     0.0000000     0.0000000
   1 FY2Z      0.0000129     0.0001154    -0.0030589    -0.0023979     0.0000000
   1 FYZ2      0.0000000     0.0000000     0.0000000     0.0000000     0.0000000
   1 FZ3      -0.0000086    -0.0000769     0.0020392     0.0015986     0.0000000
   2 S        -0.4257857    -0.0002678     0.1007105    -0.0295214     0.0000000
   2 S        -0.6512478    -0.0006089     0.2508002    -0.0749820     0.0000000
   2 S        -0.0231736     0.0002664    -0.3509355     0.1212557     0.0000000
   2 S         0.0093960     0.0013081    -0.5049331     0.1614936     0.0000000
   2 S        -0.0085137    -0.0008263    -0.1562129     0.1864712     0.0000000
   2 PX        0.0000000     0.0000000     0.0000000     0.0000000     0.4787450
   2 PY        0.0000000     0.0000000     0.0000000     0.0000000     0.0000000
   2 PZ       -0.0013560     0.0009627    -0.0613139    -0.4331090     0.0000000
   2 PX        0.0000000     0.0000000     0.0000000     0.0000000     0.4228623
   2 PY        0.0000000     0.0000000     0.0000000     0.0000000     0.0000000
   2 PZ        0.0011849     0.0011624    -0.0586754    -0.3649369     0.0000000
   2 PX        0.0000000     0.0000000     0.0000000     0.0000000     0.1831874
   2 PY        0.0000000     0.0000000     0.0000000     0.0000000     0.0000000
   2 PZ       -0.0024255    -0.0003158    -0.0100915    -0.1155025     0.0000000
   2 DX2       0.0000177    -0.0000467     0.0008274     0.0021233     0.0000000
   2 DXY       0.0000000     0.0000000     0.0000000     0.0000000     0.0000000
   2 DXZ       0.0000000     0.0000000     0.0000000     0.0000000     0.0053284
   2 DY2       0.0000177    -0.0000467     0.0008274     0.0021233     0.0000000
   2 DYZ       0.0000000     0.0000000     0.0000000     0.0000000     0.0000000
   2 DZZ      -0.0000355     0.0000935    -0.0016548    -0.0042466     0.0000000
   2 DX2      -0.0000584    -0.0002325     0.0032937     0.0068689     0.0000000
   2 DXY       0.0000000     0.0000000     0.0000000     0.0000000     0.0000000
   2 DXZ       0.0000000     0.0000000     0.0000000     0.0000000     0.0250119
   2 DY2      -0.0000584    -0.0002325     0.0032937     0.0068689     0.0000000
   2 DYZ       0.0000000     0.0000000     0.0000000     0.0000000     0.0000000
   2 DZZ       0.0001169     0.0004650    -0.0065875    -0.0137378     0.0000000
   2 FX3       0.0000000     0.0000000     0.0000000     0.0000000    -0.0006156
   2 FX2Y      0.0000000     0.0000000     0.0000000     0.0000000     0.0000000
   2 FX2Z     -0.0000206    -0.0001507     0.0011082     0.0018409     0.0000000
   2 FXY2      0.0000000     0.0000000     0.0000000     0.0000000    -0.0006156
   2 FXYZ      0.0000000     0.0000000     0.0000000     0.0000000     0.0000000
   2 FXZ2      0.0000000     0.0000000     0.0000000     0.0000000     0.0024626
   2 FY3       0.0000000     0.0000000     0.0000000     0.0000000     0.0000000
   2 FY2Z     -0.0000206    -0.0001507     0.0011082     0.0018409     0.0000000
   2 FYZ2      0.0000000     0.0000000     0.0000000     0.0000000     0.0000000
   2 FZ3       0.0000138     0.0001005    -0.0007388    -0.0012273     0.0000000
--------------------------------------------------------------------------------
Eigenvalue     -1.051950     -0.889137     -0.247393     -0.247393     -0.091265
 Symmetry          PI           SG+            PI            PI           SG+    
--------------------------------------------------------------------------------
   1 S         0.0000000     0.0912690     0.0000000     0.0000000     0.0121593
   1 S         0.0000000     0.1981640     0.0000000     0.0000000     0.0240612
   1 S         0.0000000    -0.4492526     0.0000000     0.0000000     0.0853972
   1 S         0.0000000    -0.4503357     0.0000000     0.0000000    -1.8417412
   1 S         0.0000000    -0.0273890     0.0000000     0.0000000     1.7947611
   1 PX        0.0000000     0.0000000     0.0000000     0.4138521     0.0000000
   1 PY        0.1269090     0.0000000     0.4138521     0.0000000     0.0000000
   1 PZ        0.0000000    -0.3526804     0.0000000     0.0000000    -0.1396185
   1 PX        0.0000000     0.0000000     0.0000000     0.5168031     0.0000000
   1 PY        0.0814466     0.0000000     0.5168031     0.0000000     0.0000000
   1 PZ        0.0000000    -0.2408111     0.0000000     0.0000000     0.4864942
   1 PX        0.0000000     0.0000000     0.0000000     0.3102759     0.0000000
   1 PY       -0.0012357     0.0000000     0.3102759     0.0000000     0.0000000
   1 PZ        0.0000000    -0.0055957     0.0000000     0.0000000    -0.6396315
   1 DX2       0.0000000     0.0010555     0.0000000     0.0000000     0.0165245
   1 DXY       0.0000000     0.0000000     0.0000000     0.0000000     0.0000000
   1 DXZ       0.0000000     0.0000000     0.0000000     0.0253934     0.0000000
   1 DY2       0.0000000     0.0010555     0.0000000     0.0000000     0.0165245
   1 DYZ      -0.0359994     0.0000000     0.0253934     0.0000000     0.0000000
   1 DZZ       0.0000000    -0.0021110     0.0000000     0.0000000    -0.0330490
   1 DX2       0.0000000     0.0016974     0.0000000     0.0000000     0.1010860
   1 DXY       0.0000000     0.0000000     0.0000000     0.0000000     0.0000000
   1 DXZ       0.0000000     0.0000000     0.0000000     0.0586381     0.0000000
   1 DY2       0.0000000     0.0016974     0.0000000     0.0000000     0.1010860
   1 DYZ      -0.0323110     0.0000000     0.0586381     0.0000000     0.0000000
   1 DZZ       0.0000000    -0.0033948     0.0000000     0.0000000    -0.2021720
   1 FX3       0.0000000     0.0000000     0.0000000     0.0006621     0.0000000
   1 FX2Y     -0.0025527     0.0000000     0.0006621     0.0000000     0.0000000
   1 FX2Z      0.0000000    -0.0002767     0.0000000     0.0000000    -0.0162597
   1 FXY2      0.0000000     0.0000000     0.0000000     0.0006621     0.0000000
   1 FXYZ      0.0000000     0.0000000     0.0000000     0.0000000     0.0000000
   1 FXZ2      0.0000000     0.0000000     0.0000000    -0.0026485     0.0000000
   1 FY3      -0.0025527     0.0000000     0.0006621     0.0000000     0.0000000
   1 FY2Z      0.0000000    -0.0002767     0.0000000     0.0000000    -0.0162597
   1 FYZ2      0.0102107     0.0000000    -0.0026485     0.0000000     0.0000000
   1 FZ3       0.0000000     0.0001845     0.0000000     0.0000000     0.0108398
   2 S         0.0000000    -0.0045100     0.0000000     0.0000000     0.0205142
   2 S         0.0000000    -0.0112127     0.0000000     0.0000000     0.0531341
   2 S         0.0000000     0.0123028     0.0000000     0.0000000    -0.0928283
   2 S         0.0000000     0.0418916     0.0000000     0.0000000    -0.1323340
   2 S         0.0000000    -0.0148627     0.0000000     0.0000000     0.5127203
   2 PX        0.0000000     0.0000000     0.0000000    -0.1696472     0.0000000
   2 PY        0.4787450     0.0000000    -0.1696472     0.0000000     0.0000000
   2 PZ        0.0000000     0.1205036     0.0000000     0.0000000    -0.0384563
   2 PX        0.0000000     0.0000000     0.0000000    -0.1414740     0.0000000
   2 PY        0.4228623     0.0000000    -0.1414740     0.0000000     0.0000000
   2 PZ        0.0000000     0.1132607     0.0000000     0.0000000    -0.0129003
   2 PX        0.0000000     0.0000000     0.0000000    -0.1972109     0.0000000
   2 PY        0.1831874     0.0000000    -0.1972109     0.0000000     0.0000000
   2 PZ        0.0000000     0.0401120     0.0000000     0.0000000     0.4242172
   2 DX2       0.0000000    -0.0005572     0.0000000     0.0000000     0.0007477
   2 DXY       0.0000000     0.0000000     0.0000000     0.0000000     0.0000000
   2 DXZ       0.0000000     0.0000000     0.0000000     0.0030614     0.0000000
   2 DY2       0.0000000    -0.0005572     0.0000000     0.0000000     0.0007477
   2 DYZ       0.0053284     0.0000000     0.0030614     0.0000000     0.0000000
   2 DZZ       0.0000000     0.0011143     0.0000000     0.0000000    -0.0014955
   2 DX2       0.0000000    -0.0029701     0.0000000     0.0000000    -0.0037987
   2 DXY       0.0000000     0.0000000     0.0000000     0.0000000     0.0000000
   2 DXZ       0.0000000     0.0000000     0.0000000     0.0102583     0.0000000
   2 DY2       0.0000000    -0.0029701     0.0000000     0.0000000    -0.0037987
   2 DYZ       0.0250119     0.0000000     0.0102583     0.0000000     0.0000000
   2 DZZ       0.0000000     0.0059402     0.0000000     0.0000000     0.0075973
   2 FX3       0.0000000     0.0000000     0.0000000    -0.0002026     0.0000000
   2 FX2Y     -0.0006156     0.0000000    -0.0002026     0.0000000     0.0000000
   2 FX2Z      0.0000000    -0.0009414     0.0000000     0.0000000    -0.0000929
   2 FXY2      0.0000000     0.0000000     0.0000000    -0.0002026     0.0000000
   2 FXYZ      0.0000000     0.0000000     0.0000000     0.0000000     0.0000000
   2 FXZ2      0.0000000     0.0000000     0.0000000     0.0008106     0.0000000
   2 FY3      -0.0006156     0.0000000    -0.0002026     0.0000000     0.0000000
   2 FY2Z      0.0000000    -0.0009414     0.0000000     0.0000000    -0.0000929
   2 FYZ2      0.0024626     0.0000000     0.0008106     0.0000000     0.0000000
   2 FZ3       0.0000000     0.0006276     0.0000000     0.0000000     0.0000619
--------------------------------------------------------------------------------
Eigenvalue     -0.054444     -0.003511     -0.003511      0.162411      0.226893
 Symmetry         SG+            PI            PI           SG+            DE    
--------------------------------------------------------------------------------
   1 S         0.0400395     0.0000000     0.0000000     0.0242952     0.0000000
   1 S         0.0794928     0.0000000     0.0000000     0.0492169     0.0000000
   1 S        -0.0619373     0.0000000     0.0000000     0.1587834     0.0000000
   1 S        -1.0359037     0.0000000     0.0000000    -1.9781664     0.0000000
   1 S         1.1218576     0.0000000     0.0000000     1.1240503     0.0000000
   1 PX        0.0000000     0.2833921     0.0000000     0.0000000     0.0000000
   1 PY        0.0000000     0.0000000     0.2833921     0.0000000     0.0000000
   1 PZ       -0.0524111     0.0000000     0.0000000     0.2408831     0.0000000
   1 PX        0.0000000     0.7619087     0.0000000     0.0000000     0.0000000
   1 PY        0.0000000     0.0000000     0.7619087     0.0000000     0.0000000
   1 PZ       -0.2718660     0.0000000     0.0000000     1.3084196     0.0000000
   1 PX        0.0000000    -1.3053911     0.0000000     0.0000000     0.0000000
   1 PY        0.0000000     0.0000000    -1.3053911     0.0000000     0.0000000
   1 PZ        1.0405695     0.0000000     0.0000000    -1.0165466     0.0000000
   1 DX2      -0.0086036     0.0000000     0.0000000    -0.0087953     0.0000000
   1 DXY       0.0000000     0.0000000     0.0000000     0.0000000     0.0129012
   1 DXZ       0.0000000    -0.0014525     0.0000000     0.0000000     0.0000000
   1 DY2      -0.0086036     0.0000000     0.0000000    -0.0087953     0.0000000
   1 DYZ       0.0000000     0.0000000    -0.0014525     0.0000000     0.0000000
   1 DZZ       0.0172073     0.0000000     0.0000000     0.0175906     0.0000000
   1 DX2      -0.0248779     0.0000000     0.0000000    -0.1270807     0.0000000
   1 DXY       0.0000000     0.0000000     0.0000000     0.0000000    -1.0034185
   1 DXZ       0.0000000     0.0357238     0.0000000     0.0000000     0.0000000
   1 DY2      -0.0248779     0.0000000     0.0000000    -0.1270807     0.0000000
   1 DYZ       0.0000000     0.0000000     0.0357238     0.0000000     0.0000000
   1 DZZ       0.0497558     0.0000000     0.0000000     0.2541614     0.0000000
   1 FX3       0.0000000    -0.0007271     0.0000000     0.0000000     0.0000000
   1 FX2Y      0.0000000     0.0000000    -0.0007271     0.0000000     0.0000000
   1 FX2Z      0.0043783     0.0000000     0.0000000    -0.0048609     0.0000000
   1 FXY2      0.0000000    -0.0007271     0.0000000     0.0000000     0.0000000
   1 FXYZ      0.0000000     0.0000000     0.0000000     0.0000000     0.0057149
   1 FXZ2      0.0000000     0.0029084     0.0000000     0.0000000     0.0000000
   1 FY3       0.0000000     0.0000000    -0.0007271     0.0000000     0.0000000
   1 FY2Z      0.0043783     0.0000000     0.0000000    -0.0048609     0.0000000
   1 FYZ2      0.0000000     0.0000000     0.0029084     0.0000000     0.0000000
   1 FZ3      -0.0029188     0.0000000     0.0000000     0.0032406     0.0000000
   2 S        -0.0114633     0.0000000     0.0000000    -0.0161191     0.0000000
   2 S        -0.0304365     0.0000000     0.0000000    -0.0402863     0.0000000
   2 S         0.0620382     0.0000000     0.0000000     0.0466760     0.0000000
   2 S         0.0243191     0.0000000     0.0000000     0.1632373     0.0000000
   2 S         0.1440274     0.0000000     0.0000000     0.3954067     0.0000000
   2 PX        0.0000000    -0.0141480     0.0000000     0.0000000     0.0000000
   2 PY        0.0000000     0.0000000    -0.0141480     0.0000000     0.0000000
   2 PZ        0.0450909     0.0000000     0.0000000     0.2157022     0.0000000
   2 PX        0.0000000    -0.0304896     0.0000000     0.0000000     0.0000000
   2 PY        0.0000000     0.0000000    -0.0304896     0.0000000     0.0000000
   2 PZ        0.0388114     0.0000000     0.0000000     0.2506923     0.0000000
   2 PX        0.0000000     0.0022051     0.0000000     0.0000000     0.0000000
   2 PY        0.0000000     0.0000000     0.0022051     0.0000000     0.0000000
   2 PZ       -0.0423419     0.0000000     0.0000000     0.5644532     0.0000000
   2 DX2      -0.0002421     0.0000000     0.0000000     0.0013428     0.0000000
   2 DXY       0.0000000     0.0000000     0.0000000     0.0000000    -0.0053916
   2 DXZ       0.0000000     0.0042561     0.0000000     0.0000000     0.0000000
   2 DY2      -0.0002421     0.0000000     0.0000000     0.0013428     0.0000000
   2 DYZ       0.0000000     0.0000000     0.0042561     0.0000000     0.0000000
   2 DZZ       0.0004843     0.0000000     0.0000000    -0.0026855     0.0000000
   2 DX2       0.0021111     0.0000000     0.0000000    -0.0050111     0.0000000
   2 DXY       0.0000000     0.0000000     0.0000000     0.0000000    -0.0186914
   2 DXZ       0.0000000     0.0099246     0.0000000     0.0000000     0.0000000
   2 DY2       0.0021111     0.0000000     0.0000000    -0.0050111     0.0000000
   2 DYZ       0.0000000     0.0000000     0.0099246     0.0000000     0.0000000
   2 DZZ      -0.0042223     0.0000000     0.0000000     0.0100223     0.0000000
   2 FX3       0.0000000    -0.0002524     0.0000000     0.0000000     0.0000000
[...]
   Norm of T1AA vector (       95 symmetry allowed elements):  0.0884008042.
-----------------------------------------------------------------------------
   Largest T2 amplitudes for spin case AA:
   i   j   a   b             i   j   a   b             i   j   a   b
-----------------------------------------------------------------------------
[  5   4  42  29]-0.02147 [  5   3  42   8] 0.01650 [  4   3  29   8] 0.01650
[  5   3  42   6]-0.01354 [  4   3  29   6]-0.01354 [  5   2  42  13]-0.01334
[  4   2  29  13]-0.01334 [  5   2  42   8]-0.01097 [  4   2  29   8]-0.01097
[  5   4  42  31]-0.01091 [  5   4  44  29]-0.01091 [  5   4  58  19]-0.00945
[  5   4  45  32]-0.00884 [  5   2  44  13]-0.00863 [  4   2  31  13]-0.00863
-----------------------------------------------------------------------------
   Norm of T2AA vector (     3841 symmetry allowed elements):  0.0906477265.
-----------------------------------------------------------------------------
   Largest T1 amplitudes for spin case BB:
   i       a                 i       a                 i       a    
-----------------------------------------------------------------------------
[  2       5    ] 0.02394 [  3      29    ] 0.02215 [  4      42    ] 0.02215
[  3      30    ] 0.00866 [  4      43    ] 0.00866 [  2       8    ] 0.00700
[  3      38    ] 0.00605 [  4      51    ] 0.00605 [  2       7    ] 0.00562
[  4      44    ] 0.00441 [  3      31    ] 0.00441 [  2      21    ] 0.00432
[  3      33    ] 0.00338 [  4      46    ] 0.00338 [  1      22    ] 0.00310
-----------------------------------------------------------------------------
   Norm of T1BB vector (       74 symmetry allowed elements):  0.0449112955.
-----------------------------------------------------------------------------
   Largest T2 amplitudes for spin case BB:
   i   j   a   b             i   j   a   b             i   j   a   b
-----------------------------------------------------------------------------
[  4   3  42  29]-0.01611 [  4   2  42   8]-0.01050 [  3   2  29   8]-0.01050
[  4   2  42  13]-0.01042 [  3   2  29  13]-0.01042 [  4   3  58  19]-0.00956
[  4   3  44  29]-0.00941 [  4   3  42  31]-0.00941 [  4   2  42   5]-0.00935
[  3   2  29   5]-0.00935 [  4   3  45  32]-0.00866 [  4   3  56  15]-0.00816
[  4   3  56  19] 0.00754 [  4   3  58  15] 0.00754 [  4   2  42  12]-0.00742
-----------------------------------------------------------------------------
   Norm of T2BB vector (     2320 symmetry allowed elements):  0.0764184554.
-----------------------------------------------------------------------------
   Largest T2 amplitudes for spin case AB:
       _       _                 _       _                 _       _
   i   j   a   b             i   j   a   b             i   j   a   b
-----------------------------------------------------------------------------
[  5   4  42  42]-0.03236 [  4   3  29  29]-0.03236 [  3   4  42   5]-0.02498
[  3   3  29   5]-0.02498 [  5   3  42  29]-0.02357 [  4   4  29  42]-0.02357
[  5   4  42  44]-0.01976 [  4   3  29  31]-0.01976 [  3   2  42  42]-0.01911
[  3   2  29  29]-0.01911 [  5   4  44  42]-0.01833 [  4   3  31  29]-0.01833
[  2   2  13  13]-0.01743 [  5   2  42   8]-0.01675 [  4   2  29   8]-0.01675
-----------------------------------------------------------------------------
   Norm of T2AB vector (    16318 symmetry allowed elements):  0.2238717196.
-----------------------------------------------------------------------------
  W(mnij) AA contribution =  0.0048807312 a.u.
  W(mnij) BB contribution =  0.0040218686 a.u.
  W(mnij) AB contribution =  0.0402414794 a.u.
  W(abef) AA contribution =  0.0055107411 a.u.
  W(abef) BB contribution =  0.0043610657 a.u.
  W(abef) AB contribution =  0.0459233904 a.u.
  W(mbej) AA contribution =  -0.0086775237 a.u.
  W(mbej) BB contribution =  -0.0056306835 a.u.
  W(mbej) AB contribution = -0.1073450389 a.u.
   After  21 iterations, amplitude changes are:
    -------------------------------------------------------------------
                 Spin      RMS          Max.      Max. change for
     Amplitude   Case     Change       Change       i    j    a    b
    -------------------------------------------------------------------
        T1        AA    0.0000000000-0.0000000002    2         8
        T1        BB    0.0000000000 0.0000000005    4        42
        T2        AA    0.0000000000 0.0000000000    5    2   42    8
        T2        BB    0.0000000000-0.0000000001    4    3   42   29
        T2        AB    0.0000000000-0.0000000003    3    4   42    5
    -------------------------------------------------------------------
   The AA contribution to the correlation energy is:   -0.0374884 a.u.
   The BB contribution to the correlation energy is:   -0.0321644 a.u.
   The AB contribution to the correlation energy is:   -0.2223489 a.u.
   The total correlation energy is -0.292001690893 a.u.
   The total correlation energy is -0.292001690893 a.u.
  Current DIIS expansion coefficients : 
 [   1] 1.1399213686 [   2] 0.0046306239 [   3] 0.0478393475 [   4]-0.2216799293
 [   5] 0.0292885893
  Convergence information after    21 iterations: 
  Largest element of residual vector :  0.49343460E-09.
  Largest element of DIIS residual   :  0.25775848E-09.
  Amplitude equations converged in    21iterations.
   The AA contribution to the correlation energy is:   -0.0374884 a.u.
   The BB contribution to the correlation energy is:   -0.0321644 a.u.
   The AB contribution to the correlation energy is:   -0.2223489 a.u.
   The total correlation energy is -0.292001690882 a.u.
   The total correlation energy is -0.292001690882 a.u.
   The CC iterations have converged.

            ----------------------------------------------
                     Projected spin multiplicities: 
            ----------------------------------------------
             <0|S^2|0>                  =    0.7500000000.
             <0|S^2 (T2+T1**2) |0>      =    0.0000000000.
             <0|S^2 T1|0>               =   -0.0000000005.
             Projected <0|S^2 exp(T)|0> =    0.7499999995.
             Approximate spin mult.     =    1.9999999995.
            ----------------------------------------------
   Largest T1 amplitudes for spin case AA:
   i       a                 i       a                 i       a    
-----------------------------------------------------------------------------
[  4      29    ] 0.05755 [  5      42    ] 0.05755 [  4      30    ] 0.01548
[  5      43    ] 0.01548 [  3       6    ]-0.01272 [  3       8    ] 0.01199
[  4      33    ] 0.00593 [  5      46    ] 0.00593 [  4      38    ] 0.00570
[  5      51    ] 0.00570 [  5      44    ] 0.00564 [  4      31    ] 0.00564
[  3      13    ] 0.00485 [  2      21    ] 0.00471 [  3      10    ] 0.00409
-----------------------------------------------------------------------------
   Norm of T1AA vector (       95 symmetry allowed elements):  0.0884008038.
-----------------------------------------------------------------------------
   Largest T2 amplitudes for spin case AA:
   i   j   a   b             i   j   a   b             i   j   a   b
-----------------------------------------------------------------------------
[  5   4  42  29]-0.02147 [  5   3  42   8] 0.01650 [  4   3  29   8] 0.01650
[  5   3  42   6]-0.01354 [  4   3  29   6]-0.01354 [  5   2  42  13]-0.01334
[  4   2  29  13]-0.01334 [  5   2  42   8]-0.01097 [  4   2  29   8]-0.01097
[  5   4  42  31]-0.01091 [  5   4  44  29]-0.01091 [  5   4  58  19]-0.00945
[  5   4  45  32]-0.00884 [  5   2  44  13]-0.00863 [  4   2  31  13]-0.00863
-----------------------------------------------------------------------------
   Norm of T2AA vector (     3841 symmetry allowed elements):  0.0906477265.
-----------------------------------------------------------------------------
   Largest T1 amplitudes for spin case BB:
   i       a                 i       a                 i       a    
-----------------------------------------------------------------------------
[  2       5    ] 0.02394 [  3      29    ] 0.02215 [  4      42    ] 0.02215
[  3      30    ] 0.00866 [  4      43    ] 0.00866 [  2       8    ] 0.00700
[  3      38    ] 0.00605 [  4      51    ] 0.00605 [  2       7    ] 0.00562
[  4      44    ] 0.00441 [  3      31    ] 0.00441 [  2      21    ] 0.00432
[  3      33    ] 0.00338 [  4      46    ] 0.00338 [  1      22    ] 0.00310
-----------------------------------------------------------------------------
   Norm of T1BB vector (       74 symmetry allowed elements):  0.0449112966.
-----------------------------------------------------------------------------
   Largest T2 amplitudes for spin case BB:
   i   j   a   b             i   j   a   b             i   j   a   b
-----------------------------------------------------------------------------
[  4   3  42  29]-0.01611 [  4   2  42   8]-0.01050 [  3   2  29   8]-0.01050
[  4   2  42  13]-0.01042 [  3   2  29  13]-0.01042 [  4   3  58  19]-0.00956
[  4   3  44  29]-0.00941 [  4   3  42  31]-0.00941 [  4   2  42   5]-0.00935
[  3   2  29   5]-0.00935 [  4   3  45  32]-0.00866 [  4   3  56  15]-0.00816
[  4   3  56  19] 0.00754 [  4   3  58  15] 0.00754 [  4   2  42  12]-0.00742
-----------------------------------------------------------------------------
   Norm of T2BB vector (     2320 symmetry allowed elements):  0.0764184556.
-----------------------------------------------------------------------------
   Largest T2 amplitudes for spin case AB:
       _       _                 _       _                 _       _
   i   j   a   b             i   j   a   b             i   j   a   b
-----------------------------------------------------------------------------
[  5   4  42  42]-0.03236 [  4   3  29  29]-0.03236 [  3   4  42   5]-0.02498
[  3   3  29   5]-0.02498 [  5   3  42  29]-0.02357 [  4   4  29  42]-0.02357
[  5   4  42  44]-0.01976 [  4   3  29  31]-0.01976 [  3   2  42  42]-0.01911
[  3   2  29  29]-0.01911 [  5   4  44  42]-0.01833 [  4   3  31  29]-0.01833
[  2   2  13  13]-0.01743 [  5   2  42   8]-0.01675 [  4   2  29   8]-0.01675
-----------------------------------------------------------------------------
   Norm of T2AB vector (    16318 symmetry allowed elements):  0.2238717196.
-----------------------------------------------------------------------------
       Summary of iterative solution of CC equations 
      -----------------------------------------------------------
                       Correlation           Total
       Iteration         Energy              Energy
      -----------------------------------------------------------
            0        -0.290290855547    -124.086266379500  DIIS 
            1        -0.282244730230    -124.078220254183  DIIS 
            2        -0.291305715989    -124.087281239942  DIIS 
            3        -0.290427041386    -124.086402565339  DIIS 
            4        -0.291747562294    -124.087723086247  DIIS 
            5        -0.292004825894    -124.087980349847  DIIS 
            6        -0.291997791848    -124.087973315801  DIIS 
            7        -0.292000425290    -124.087975949243  DIIS 
            8        -0.292000166252    -124.087975690205  DIIS 
            9        -0.292000565941    -124.087976089894  DIIS 
           10        -0.292001296058    -124.087976820011  DIIS 
           11        -0.292001553626    -124.087977077579  DIIS 
           12        -0.292001660378    -124.087977184331  DIIS 
           13        -0.292001684074    -124.087977208027  DIIS 
           14        -0.292001686120    -124.087977210073  DIIS 
           15        -0.292001688722    -124.087977212675  DIIS 
           16        -0.292001688797    -124.087977212750  DIIS 
           17        -0.292001690281    -124.087977214234  DIIS 
           18        -0.292001690596    -124.087977214549  DIIS 
           19        -0.292001690863    -124.087977214816  DIIS 
           20        -0.292001690874    -124.087977214827  DIIS 
           21        -0.292001690882    -124.087977214835  DIIS 
      -----------------------------------------------------------
      A miracle has come to pass. The CC iterations have converged.
 @DIMT3-I, Dimensions of T3 amplitudes : 
               # abc          # ijk       Symmetry    Spin 
                     6718              1     1          1
                     6578              3     2          1
                     6578              3     3          1
                     6361              3     4          1
                    21820             12     1          2
                    20813             10     2          2
                    20813             10     3          2
                    19714              8     4          2
                    22299              7     1          3
                    21190              8     2          3
                    21190              8     3          3
                    20021              7     4          3
                     7142              0     1          4
                     6955              1     2          4
                     6955              1     3          4
                     6668              2     4          4
 @DIMT3-I, Dimensions of T3 amplitudes : 
               # abc          # ijk       Symmetry    Spin 
                     6718              1     1          1
                     6578              3     2          1
                     6578              3     3          1
                     6361              3     4          1
                    21820             12     1          2
                    20813             10     2          2
                    20813             10     3          2
                    19714              8     4          2
                    22299              7     1          3
                    21190              8     2          3
                    21190              8     3          3
                    20021              7     4          3
                     7142              0     1          4
                     6955              1     2          4
                     6955              1     3          4
                     6668              2     4          4
 @TRPS-I, Welcome to TRPS. Watch your RUs ! 
 @TRPS-I, Method is CCSD(T) 
 @TRPS-I, Calculation type is energy 
 @TRPS-I, Reference function information : 
          Reference function is general non-HF 
 @TRPS-I, Reference function is ROHF 
 @TRPS-I, INT1 is true 
 @TRPS-I, INT2 is false 
 @TRPS-I, Lengths of ijka integrals. #1        737
                                     #2        336
                                     #3       1202
                                     #4       1562
                                    Max       1562
 @INITRP-I, Initializing W intermediate lists. 
 @TSPABCI-I, AbIc/AbcI record transposition. 
 @TSPABCI-I, (O,v) ---> (v,O) transposition. 
 @TSPABCI-I, In-core algorithm is being used. 
 @TSPABCI-I, In-core algorithm is being used. 
 @TSPABCI-I, In-core algorithm is being used. 
 @TSPABCI-I, In-core algorithm is being used. 
 @TRPS-I, Available memory in integer words    249959040
          Number of pre-allocated words for TRPS14         4820
          Number of free words for TRPS14    249954220
 @TRPS14-I, Spin case AAA 
 @TRPS14-I, Number of free integer words  249954220
            Number of free double words   249954220
            Ratio                                 1
 @TRPS14-I, E4TAAA      -0.000388282443
 @TRPS14-I, E5ST A    0.000075223558287
 @TRPS14-I, E4ST A    0.000002337772817
 @TRPS-I, Available memory in integer words    249959040
          Number of pre-allocated words for TRPS14         4816
          Number of free words for TRPS14    249954224
 @TRPS14-I, Spin case BBB 
 @TRPS14-I, Number of free integer words  249954224
            Number of free double words   249954224
            Ratio                                 1
 @TRPS14-I, E4TBBB      -0.000230980407
 @TRPS14-I, E5ST B    0.000031465140675
 @TRPS14-I, E4ST B   -0.000001254270940
 @SETOOOV-I, Some OOOV lists are being transposed. 
 @TRPS-I, Available memory in integer words    249959040
          Number of pre-allocated words for TRPS2        21828
          Number of free words for TRPS2    249937212
 @TRPS2-I, Spin case AAB 
 @TRPS2-I, Number of free integer words  249937212
           Number of free double  words  249937212
           Ratio                                 1
 @TRPS2-I, E4TBAA      -0.006036266293
 @TRPS2-I, E5ST A    0.000700081574625
 @TRPS2-I, E5ST B    0.000196514288968
 @TRPS2-I, E4ST A    0.000023691332245
 @TRPS2-I, E4ST B   -0.000010833002414
 @SETOOOV-I, Some OOOV lists are being transposed. 
 @TSPABCI2-I, (Alpha,Beta) ---> (Beta,Alpha). 
 @TSPABCI2-I, In-core algorithm is being used. 
 @TSPABCI2-I, In-core algorithm is being used. 
 @TSPABCI2-I, In-core algorithm is being used. 
 @TSPABCI2-I, In-core algorithm is being used. 
 @TSPABCI2-I, In-core algorithm is being used. 
 @TSPABCI2-I, In-core algorithm is being used. 
 @TSPABCI2-I, In-core algorithm is being used. 
 @TSPABCI2-I, In-core algorithm is being used. 
 @AT2IAB-I, Some AbIj lists are being altered. 
 @TRPS-I, Available memory in integer words    249959040
          Number of pre-allocated words for TRPS3        40798
          Number of free words for TRPS3    249918242
 @TRPS3-I, Spin case BBA 
 @TRPS3-I, Number of free integer words  249918242
           Number of free double  words  249918242
           Ratio                                 1
 @TRPS3-I, E4TBBA      -0.005058188424
 @TRPS3-I, E5ST A    0.000967446577528
 @TRPS3-I, E5ST B    0.000520981065497
 @TRPS3-I, E4ST A    0.000031922482906
 @TRPS3-I, E4ST B   -0.000030214046534
 @TSPABCI2-I, (Beta,Alpha) ---> (Alpha,Beta). 
 @TSPABCI2-I, In-core algorithm is being used. 
 @TSPABCI2-I, In-core algorithm is being used. 
 @TSPABCI2-I, In-core algorithm is being used. 
 @TSPABCI2-I, In-core algorithm is being used. 
 @TSPABCI2-I, In-core algorithm is being used. 
 @TSPABCI2-I, In-core algorithm is being used. 
 @TSPABCI2-I, In-core algorithm is being used. 
 @TSPABCI2-I, In-core algorithm is being used. 
 @AT2IAB-I, Some AbIj lists are being altered. 
 @TSPABCI-I, AbIc/AbcI record transposition. 
 @TSPABCI-I, (v,O) ---> (O,v) transposition. 
 @TSPABCI-I, In-core algorithm is being used. 
 @TSPABCI-I, In-core algorithm is being used. 
 @TSPABCI-I, In-core algorithm is being used. 
 @TSPABCI-I, In-core algorithm is being used. 
 @CCENRG-I, CCSD/QCISD energy will now be evaluated. 
 @CCENRG-I, Correlation energies. ECCAA       -0.037488378923
                                  ECCBB       -0.032164379223
                                  ECCAB       -0.222348932736
                                  Total       -0.292001690882
 @CCENRG-I, Reference   energy    -123.795975523953
            CCSD/QCISD energy     -124.087977214835
          E4T (T(CCSD)) = -0.011713717567
          E5ST          =  0.001488427643
          E4ST          =  0.000001708436
          In other words  
          <T3[2](Dagger) D3  T3[2]> = -0.011713717567
          <T1   (Dagger) Q1 WT3[2]> =  0.001488427643
          <T2   (Dagger) Q2 FT3[2]> =  0.000001708436
        E(CCSD)           =    -124.087977214835
        E(CCSD(T))        =    -124.098200796323
  @CHECKOUT-I, Total execution time (CPU/WALL):        6.59/       6.69 seconds.
--executable xvcc finished with status     0 in        7.28 seconds (walltime).
  The final electronic energy is      -124.098200796322743 a.u. 
  This computation required                           24.88 seconds (walltime).
--- SharcNET Job Epilogue ---
Job completed successfully.
               jobid: 1963887
               resid: 3433360
         exit status: 0
      allocated time: 26.1191
           user time: 9.06
         system time: 2.28
peak rss=212172800; peak vsz=212172800 (bytes)
atime=26.1191; utime=9.06; stime=2.28; exit=0
