 --invoking executable--
/home/nike/cfour_v2.00beta/bin/xjoda


   *************************************************************************
         <<<     CCCCCC     CCCCCC   |||     CCCCCC     CCCCCC   >>>
       <<<      CCC        CCC       |||    CCC        CCC         >>>
      <<<      CCC        CCC        |||   CCC        CCC            >>>
    <<<        CCC        CCC        |||   CCC        CCC              >>>
      <<<      CCC        CCC        |||   CCC        CCC            >>>
       <<<      CCC        CCC       |||    CCC        CCC         >>>
         <<<     CCCCCC     CCCCCC   |||     CCCCCC     CCCCCC   >>>
   *************************************************************************

     ****************************************************************
     * CFOUR Coupled-Cluster techniques for Computational Chemistry *
     ****************************************************************
 

   Department of Chemistry                Institut fuer Physikalische Chemie
   University of Texas at Austin          Universitaet Mainz
   Austin, TX  78712, USA                 D-55099 Mainz, Germany
 
                       Version 2.00beta
 
                     wob130                                            
                     Fri Jul  6 13:55:51 EDT 2018                      
                     integer*8 version is running
 
********************************************************************************
*                          Input from ZMAT file                                *
********************************************************************************
TITLE                                                                           
N                                                                               
                                                                                
*ACES2(CALC=CCSD                                                                
INPUT_MRCC=OFF                                                                  
CC_PROG=MRCC                                                                    
XFORM_TOL=18                                                                    
SAVE_INTS=ON                                                                    
SCF_EXPORDER=6                                                                  
SCF_EXPSTART=5                                                                  
#SCF_DAMPING=1000                                                               
SCF_EXTRAPOLATION=ON                                                            
SCF_CONV=10                                                                     
SCF_MAXCYC=9999                                                                 
CC_CONV=10                                                                      
CC_MAXCYC=999                                                                   
T3_EXTRAPOL=ON                                                                  
REFERENCE=ROHF                                                                  
CHARGE=+0                                                                       
MULT=4                                                                          
ABCDTYPE=STANDARD                                                               
OCCUPATION=2-1-1-0-1-0-0-0/2-0-0-0-0-0-0-0                                      
MEM=32                                                                          
MEM_UNIT=GB                                                                     
BASIS=SPECIAL)                                                                  
                                                                                
N:aCVDZ-EMSL                                                                    
                                                                                
********************************************************************************
  @GTFLGS-W, Keyword #SCF_DAMPING not known and is ignored.
    -------------------------------------------------------------------
                    CFOUR Control Parameters 
    -------------------------------------------------------------------
        External           Internal           Value            Units
          Name               Name
    -------------------------------------------------------------------
       ABCDTYPE             IABCDT         STANDARD     [  0]   ***   
       ANHARMONIC           IANHAR         OFF          [  0]   ***   
       ANH_ALGORIT          IANALG         STANDARD     [  0]   ***   
       ANH_DERIVAT          IANDER         SECOND       [  1]   ***   
       ANH_STEPSIZ          ICUBST             50000          x 10-6  
       ANH_SYMMETR          IANHSM         ABELIAN      [  0]   ***   
       AO_LADDERS           IAOLAD         SINGLEPASS   [  1]   ***   
       BASIS                IBASIS         SPECIAL      [  0]   ***   
       BREIT                IBREIT         OFF          [  0]   ***   
       BRUCK_CONV           IBRTOL          10D-  4             ***   
       BRUECKNER            IBRKNR             OFF      [  0]   ***   
       BUFFERSIZE           IBUFFS            600               ***   
       CACHE_RECS           ICHREC             10               ***   
       CALCLEVEL            ICLLVL           CCSD       [ 10]   ***   
       CCORBOPT             ICCORB             OFF      [  0] x 0.01  
       CC_CONV              ICCCNV          10D- 10             ***   
       CC_EXPORDER          ICCEOR              5               ***   
       CC_EXTRAPOL          ICCEXT             DIIS     [  1]   ***   
       CC_MAXCYC            ICCCYC            999              cycles 
       CC_PROGRAM           ICCPRO         MRCC         [  2]   ***   
       CHARGE               ICHRGE              0               ***   
       CHOLESKY             ICHOLE         OFF          [  0]   ***   
       CIS_CONV             ICISTL              5               ***   
       COMM_SIZE            IPSIZE            ***               ***   
       CONSTANT             ICONST         OLD          [  1]   ***   
       CONTINUUM            ICONTU         NONE         [  0]   ***   
       CONTRACTION          ICNTYP          GENERAL     [  1]   ***   
       COORDINATES          ICOORD         INTERNAL     [  0]   ***   
       CPHF_CONVER          ICPHFT          10D- 16             ***   
       CPHF_MAXCYC          ICPHFC             64              cycles 
       CUBIC                ICUBIC         OFF          [  0]   ***   
       CURVILINEAR          ICURVY            OFF       [  0]   ***   
       DBOC                 IDBOC          OFF          [  0]   ***   
       DCT                  IDCT           OFF          [  0]   ***   
       DERIV_LEV            IDRLVL            ZERO      [  0]   ***   
       DIAG_MRCC            IEOMST          10D-  0             ***   
       DIFF_TYPE            IDIFTY         RELAXED      [  0]   ***   
       DIRECT               IDIRCT         OFF          [  0]   ***   
       DROPMO               IDRPMO      NONE         
       ECP                  IECP           OFF          [  0]   ***   
       EIGENVECTOR          IVEC                1               ***   
       EL_ANHARM            IELANH         OFF          [  0]   ***   
       EOMFOLLOW            IEOMSR         ENERGY       [  0]   ***   
       EOM_MRCC             IMRCCE         NEW          [  1]   ***   
       EOM_NONIT            EOMNON         OFF          [  0]   ***   
       EOM_NSING            IEOMSI          10D-  0             ***   
       EOM_NSTATES          IMRCCD         DAVIDSON     [  0]   ***   
       EOM_NTRIP            IEOMTR          10D-  0             ***   
       EOM_ORDER            IEXORD         ENERGY       [  0]   ***   
       ESTATE_CONV          IEXTOL          10D-  5             ***   
       ESTATE_DIAG          IEXDIG         ITERATIVE    [  0]   ***   
       ESTATE_LOCK          IESLOC         ON           [  1]   ***   
       ESTATE_MAXC          IEXMXC             20               ***   
       ESTATE_PROP          IEXPRP         OFF          [  0]   ***   
       EVAL_HESS            IRECAL              0            # of cyc.
       EXCITATION           IEXCIT              0               ***   
       EXCITE               IEXCIT         NONE         [  0]   ***   
       FCGRADNEW            IFCGNW         OFF          [  0]   ***   
       FC_FIELD             IFINFC              0             x 10-6  
       FD_CALTYPE           IFDCAL         GRADONLY     [  0]   ***   
       FD_PROJECT           IFDPRJ         OFF          [  1]   ***   
       FD_STEPSIZE          IDISFD              0            10-4 bohr
       FD_USEGROUP          IFDGRP         FULL         [  0]   ***   
       FILE_RECSIZ          IFLREC              4096           words  
       FINITE_PERT          IFIPER              0             x 10-6  
       FIXGEOM              IFIXGM         OFF          [  0]   ***   
       FOCK                 IFOCK          AO           [  1]   ***   
       FREQ_ALGORI          IVIALG         STANDARD     [  0]   ***   
       FROZEN_CORE          IFROCO         OFF          [  0]   ***   
       FROZEN_VIRT          IFROVI         OFF          [  0]   ***   
       GAMMA_ABCD           IGABCD         STORE        [  0]   ***   
       GAMMA_ABCI           IGABCI         STORE        [  0]   ***   
       GENBAS_1             IGNBS1              0               ***   
       GENBAS_2             IGNBS2              0               ***   
       GENBAS_3             IGNBS3              0               ***   
       GENBAS_4             IGNBS4              0               ***   
       GEO_CONV             ICONTL              5              H/bohr 
       GEO_MAXCYC           IOPTCY             50               ***   
       GEO_MAXSTEP          IMXSTP            300            millibohr
       GEO_METHOD           INR            SINGLE_POINT [  5]   ***   
       GIAO                 IGIAO          OFF          [  1]   ***   
       GIMIC                IGIMIC         OFF          [  0]   ***   
       GRID                 IGRID          OFF          [  0]   ***   
       GRID_ALGO            IGALGO         SERIAL       [  0]   ***   
       GUESS                IGUESS            MOREAD    [  0]   ***   
       HBAR                 IHBAR              OFF      [  0]   ***   
       HESS_TYPE            IHESTP         SCF          [  0]   ***   
       HF2_FILE             IHF2Fl         USE          [  1]   ***   
       HFSTABILITY          ISTABL         OFF          [  0]   ***   
       INCORE               INCORE             OFF      [  0]   ***   
       INPUT_MRCC           IMRCC          OFF          [  0]   ***   
       INTEGRALS            INTTYP             VMOL     [  1]   ***   
       JODA_PRINT           IJPRNT              0               ***   
       LINDEP_TOL           ILINDP              8               ***   
       LINEQ_CONV           IZTACN          10D-  7           cycles  
       LINEQ_EXPOR          ILMAXD              5               ***   
       LINEQ_MAXCY          ILMAXC             50               ***   
       LINEQ_TYPE           ILTYPE         DIIS         [  1]   ***   
       LOCK_ORBOCC          ILOCOC             OFF      [  0]   ***   
       MEMORY_SIZE          IMEMSZ         *********           words  
       MEM_UNIT             IMEMU          GB           [  3]   ***   
       MRCC                 IMRCCC         OFF          [  0]   ***   
       MULTIPLICTY          IMULTP              4               ***   
       NEGEVAL              IDIE             ABORT      [  0]   ***   
       NEWNORM              INEWNO         OFF          [  0]   ***   
       NON-HF               INONHF              ON      [  1]   ***   
       NTOP_TAMP            ITOPT2             15               ***   
       NUC_MODEL            INUCMO         POINT        [  0]   ***   
       OCCUPATION           IOCCU  A   2,  1,  1,  0,  1,  0,  0,  0,
                                   B   2,  0,  0,  0,  0,  0,  0,  0,
       OPEN-SHELL           IOPEN          SPIN-ORBITAL [  0]   ***   
       ORBITALS             IORBTP         SEMICANONICAL[  1]   ***   
       PARALLEL             IPARAL         ON           [  1]   ***   
       PARA_INT             IPINTS         ON           [  1]   ***   
       PARA_PRINT           IPPRIN              0               ***   
       PERT_ORB             IPTORB         STANDARD     [  0]   ***   
       POINTS               IGRDFD              0               ***   
       PRINT                IPRNT               0               ***   
       PROPS                IPROPS             OFF      [  0]   ***   
       PROP_INTEGR          IINTYP         INTERNAL     [  0]   ***   
       PSI                  IPSI           OFF          [  0]   ***   
       QUARTIC              IQUART         OFF          [  0]   ***   
       RAMAN_INT            IRAMIN         OFF          [  0]   ***   
       RAMAN_ORB            IRAMRE         UNRELAXED    [  0]   ***   
       RDO                  IRDOFM             OFF      [  0]   ***   
       REFERENCE            IREFNC             ROHF     [  2]   ***   
       RELATIVIST           IRELAT         OFF          [  0]   ***   
       RELAX_DENS           IRDENS             OFF      [  0]   ***   
       RESET_FLAGS          IRESET             OFF      [  0]   ***   
       RESTART_CC           ICCRES         OFF          [  0]   ***   
       ROT_EVEC             ROTVEC              0               ***   
       SAVE_INTS            ISVINT              ON      [  1]   ***   
       SCALE_ON             ISTCRT              0               ***   
       SCF_CONV             ISCFCV          10D- 10             ***   
       SCF_DAMPING          IDAMP               0             x 10-3  
       SCF_EXPORDE          IRPPOR              6               ***   
       SCF_EXPSTAR          IRPPLS              5               ***   
       SCF_EXTRAPO          IRPP                ON      [  1]   ***   
       SCF_MAXCYC           ISCFCY            ***              cycles 
       SCF_NOSTOP           ISCFST         OFF          [  0]   ***   
       SCF_PRINT            ISCFPR              0               ***   
       SD_FIELD             IFINSD              0             x 10-6  
       SEQUENCE             ISEQUE         OFF          [  0]   ***   
       SOPERT               IPERSO         OFF          [  0]   ***   
       SPHERICAL            IDFGHI             ON       [  1]   ***   
       SPINORBIT            ISOCAL         OFF          [  0]   ***   
       SPINROTATIO          ISRCON         OFF          [  0]   ***   
       SPIN_FLIP            ISPFLP         OFF          [  0]   ***   
       SPIN_ORBIT           ISPORB         OFF          [  0]   ***   
       SPIN_SCAL            ISCSMP         OFF          [  0]   ***   
       SUBGROUP             ISUBGP         DEFAULT      [  0]   ***   
       SUBGRPAXIS           ISBXYZ         X            [  0]   ***   
       SYMMETRY             ISYM             ON         [  0]   ***   
       SYM_CHECK            ISYMCK         OVERRIDE     [  1]   ***   
       T3_EXTRAPOL          IT3EXT         ON           [  1]   ***   
       TAMP_SUM             IEVERY              5               ***   
       TESTSUITE            ITESTS         OFF          [  0]   ***   
       THERMOCH             ITHERM         OFF          [  0]   ***   
       TOL_CHOLESK          ITOLCH          10D-  4             ***   
       TRANGRAD             IRESRM         OFF          [  0]   ***   
       TRANS_INV            ITRAIN         USE          [  0]   ***   
       TREAT_PERT           ITREAT         SIMULTANEOUS [  0]   ***   
       UIJ_THRESHO          IUIJTH              1               ***   
       UNITS                IUNITS         ANGSTROM     [  0]   ***   
       UNOS                 IUNOS          OFF          [  0]   ***   
       UPDATE_HESS          IHUPDT         ON           [  1]   ***   
       VIBPHASE             ISETPH         STANDARD     [  0]   ***   
       VIBRATION            IVIB              NO        [  0]   ***   
       VIB_ALGORIT          IGEALG         STANDARD     [  0]   ***   
       VNATORB              IVNORB         OFF          [  0]   ***   
       VTRAN                IVTRAN         FULL/PARTIAL [  0]   ***   
       XFIELD               IXEFLD              0             x 10-6  
       XFORM_TOL            IXFTOL          10D- 18             ***   
       YFIELD               IYEFLD              0             x 10-6  
       ZFIELD               IZEFLD              0             x 10-6  
    -------------------------------------------------------------------
   1 entries found in Z-matrix 
   Job Title : TITLE                                                                           
  1  N          7    14.00307
 factor:   60.1997200000000     
   Rotational constants (in cm-1): 

   Rotational constants (in MHz): 

********************************************************************************
   The full molecular point group is I h .
   The largest Abelian subgroup of the full molecular point group is D2h .
   The computational point group is D2h .
********************************************************************************
  @GTFLGS-W, Keyword #SCF_DAMPING not known and is ignored.
  There are   27 basis functions.
 @GEOPT-W, Archive file not created for single-point calculation.
  @CHECKOUT-I, Total execution time (CPU/WALL):        0.23/       0.41 seconds.
--executable xjoda finished with status     0 in        0.59 seconds (walltime).
 --invoking executable--
/home/nike/cfour_v2.00beta/bin/xvmol
 Serial version of molecule started
********************************************************************************
                    Input from MOL file
********************************************************************************
INTGRL        1    0    1    0    0    0    0    0    0                         
         *** CFOUR Program System (Release V0.1) ***                            
TITLE                                                                           
    1    3 X  Y   Z   0.10E-08              0    0                              
   9999.00      3.00                                                            
          7.00000000    1    3    1    1    1                                   
N #1   0.000000000000000   0.000000000000000   0.000000000000000                
   11    5                                                                      
   9046.00000000000       7.000000000000000E-004 -1.530000000000000E-004        
  0.000000000000000E+000  0.000000000000000E+000  0.000000000000000E+000        
   1357.00000000000       5.389000000000000E-003 -1.208000000000000E-003        
  0.000000000000000E+000  0.000000000000000E+000  0.000000000000000E+000        
   309.300000000000       2.740600000000000E-002 -5.992000000000000E-003        
  0.000000000000000E+000  0.000000000000000E+000  0.000000000000000E+000        
   87.7300000000000       0.103207000000000      -2.454400000000000E-002        
  0.000000000000000E+000  0.000000000000000E+000  0.000000000000000E+000        
   28.5600000000000       0.278723000000000      -6.745900000000001E-002        
  0.000000000000000E+000  0.000000000000000E+000  0.000000000000000E+000        
   10.2100000000000       0.448540000000000      -0.158078000000000             
  0.000000000000000E+000  0.000000000000000E+000  0.000000000000000E+000        
   3.83800000000000       0.278238000000000      -0.121831000000000             
  0.000000000000000E+000  0.000000000000000E+000  0.000000000000000E+000        
  0.746600000000000       1.544000000000000E-002  0.549003000000000             
  0.000000000000000E+000  0.000000000000000E+000  0.000000000000000E+000        
  0.224800000000000      -2.864000000000000E-003  0.578815000000000             
   1.00000000000000       0.000000000000000E+000  0.000000000000000E+000        
   6.23300000000000       0.000000000000000E+000  0.000000000000000E+000        
  0.000000000000000E+000   1.00000000000000       0.000000000000000E+000        
  6.124000000000000E-002  0.000000000000000E+000  0.000000000000000E+000        
  0.000000000000000E+000  0.000000000000000E+000   1.00000000000000             
    6    4                                                                      
   13.5500000000000       3.991900000000000E-002  0.000000000000000E+000        
  0.000000000000000E+000  0.000000000000000E+000                                
   2.91700000000000       0.217169000000000       0.000000000000000E+000        
  0.000000000000000E+000  0.000000000000000E+000                                
  0.797300000000000       0.510319000000000       0.000000000000000E+000        
  0.000000000000000E+000  0.000000000000000E+000                                
  0.218500000000000       0.462214000000000        1.00000000000000             
  0.000000000000000E+000  0.000000000000000E+000                                
   19.9770000000000       0.000000000000000E+000  0.000000000000000E+000        
   1.00000000000000       0.000000000000000E+000                                
  5.611000000000000E-002  0.000000000000000E+000  0.000000000000000E+000        
  0.000000000000000E+000   1.00000000000000                                     
    2    2                                                                      
  0.817000000000000        1.00000000000000       0.000000000000000E+000        
  0.230000000000000       0.000000000000000E+000   1.00000000000000             
FINISH                                                                          
 
********************************************************************************
 One- and two-electron integrals over symmetry-adapted AOs are calculated.

  Spherical harmonics are used.
  
  Integrals less than  0.10E-13 are neglected.

  Nuclear repulsion energy :    0.0000000000 a.u.
  required memory for a1 array                5029908  words 
  required memory for a2 array                2103164  words 
 @GETMEM-I,  Allocated      69 MB of main memory.
  @MOLECU-I, One electron integrals (CPU/WALL):        0.02/       0.02 seconds.
  @TWOEL-I,        634 integrals of symmetry type  I I I I
  @TWOEL-I,       2993 integrals of symmetry type  I J I J
  @TWOEL-I,       2170 integrals of symmetry type  I I J J
  @TWOEL-I,       3304 integrals of symmetry type  I J K L
  @TWOEL-I, Total number of 2-e integrals       9101.
  @MOLECU-I, Two electron integrals (CPU/WALL):        0.01/       0.03 seconds.
  @CHECKOUT-I, Total execution time (CPU/WALL):        0.04/       0.10 seconds.
--executable xvmol finished with status     0 in        0.25 seconds (walltime).
 --invoking executable--
/home/nike/cfour_v2.00beta/bin/xvmol2ja
 @GETMEM-I,  Allocated   30517 MB of main memory.
  @CHECKOUT-I, Total execution time (CPU/WALL):        0.00/       0.02 seconds.
--executable xvmol2ja finished with status     0 in        0.16 seconds (walltime).
 --invoking executable--
/home/nike/cfour_v2.00beta/bin/xvscf
  There are   27 functions in the AO basis.

  There are 8 irreducible representations.

       Irrep        # of functions
         1                  9
         2                  4
         3                  4
         4                  2
         5                  4
         6                  2
         7                  2
         8                  0


  Parameters for SCF calculation: 
        SCF reference function: ROHF  
  Maximum number of iterations: 9999
     Full symmetry point group: I h 
     Computational point group: D2h 
        Initial density matrix: MOREAD                 
     SCF convergence tolerance: 10**(-10)
  DIIS convergence acceleration:  ON
          Latest start for DIIS:   5
                     DIIS order:   6

     Alpha population by irrep:   2    1    1    0    1    0    0    0
      Beta population by irrep:   2    0    0    0    0    0    0    0


  Memory information:      70036 words required.
  Fock matrices are constructed from AO integral file.
 @GETMEM-I,  Allocated       0 MB of main memory.
  Initialization and symmetry analysis required      0.002 seconds.

 total no. of electrons in initial guess :  0.000000000000000E+000
 total no. of electrons in initial guess :  0.000000000000000E+000
  --------------------------------------------------------------------
  Iteration         Total Energy            Largest Density Difference
  --------------------------------------------------------------------
       0             0.000000000000000              0.0000000000D+00
   current occupation vector 
     2  1  1  0  1  0  0  0
     2  0  0  0  0  0  0  0
       1           -52.049647756547628              0.5169282365D+01
   current occupation vector 
     2  1  1  0  1  0  0  0
     2  0  0  0  0  0  0  0
       2           -52.249591536495366              0.4333770353D+01
   current occupation vector 
     2  1  1  0  1  0  0  0
     2  0  0  0  0  0  0  0
       3           -54.079206548190946              0.1600204850D+01
   current occupation vector 
     2  1  1  0  1  0  0  0
     2  0  0  0  0  0  0  0
       4           -53.853469908898816              0.1306677172D+01
   current occupation vector 
     2  1  1  0  1  0  0  0
     2  0  0  0  0  0  0  0
       5           -54.343875097591450              0.7201975740D+00
   current occupation vector 
     2  1  1  0  1  0  0  0
     2  0  0  0  0  0  0  0
       6           -54.381761436459151              0.3885783801D+00
   current occupation vector 
     2  1  1  0  1  0  0  0
     2  0  0  0  0  0  0  0
       7           -54.389305727984897              0.1029212655D+00
   current occupation vector 
     2  1  1  0  1  0  0  0
     2  0  0  0  0  0  0  0
       8           -54.389657983431448              0.4524857742D-01
   current occupation vector 
     2  1  1  0  1  0  0  0
     2  0  0  0  0  0  0  0
       9           -54.389893286773415              0.1736701165D-01
   current occupation vector 
     2  1  1  0  1  0  0  0
     2  0  0  0  0  0  0  0
      10           -54.389902960748444              0.2779390630D-02
   current occupation vector 
     2  1  1  0  1  0  0  0
     2  0  0  0  0  0  0  0
      11           -54.389902981426303              0.1514510892D-03
   current occupation vector 
     2  1  1  0  1  0  0  0
     2  0  0  0  0  0  0  0
      12           -54.389902981975972              0.2136023778D-04
   current occupation vector 
     2  1  1  0  1  0  0  0
     2  0  0  0  0  0  0  0
      13           -54.389902981976064              0.1896381786D-06
   current occupation vector 
     2  1  1  0  1  0  0  0
     2  0  0  0  0  0  0  0
      14           -54.389902981976114              0.6913943071D-08
   current occupation vector 
     2  1  1  0  1  0  0  0
     2  0  0  0  0  0  0  0

  SCF has converged.

 Density matrix saved to file den.dat
 total alpha spin electron number:   5.00000000000000     
 total  beta spin electron number:   2.00000000000000     
     E(ROHF)=       -54.389902981975986              0.2261080212D-10

  Eigenvector printing suppressed.


       The average multiplicity is    4.0000000
  The expectation value of S**2 is    3.7500000

 @PUTMOS-I, Writing converged MOs to NEWMOS. 
 @PUTMOS-I, Symmetry   1 Full Blocks  2 Partial Blocksize   1
 @PUTMOS-I, Symmetry   2 Full Blocks  1 Partial Blocksize   0
 @PUTMOS-I, Symmetry   3 Full Blocks  1 Partial Blocksize   0
 @PUTMOS-I, Symmetry   4 Full Blocks  0 Partial Blocksize   2
 @PUTMOS-I, Symmetry   5 Full Blocks  1 Partial Blocksize   0
 @PUTMOS-I, Symmetry   6 Full Blocks  0 Partial Blocksize   2
 @PUTMOS-I, Symmetry   7 Full Blocks  0 Partial Blocksize   2
 @PUTMOS-I, Symmetry   8 Full Blocks  0 Partial Blocksize   0
  @DMPJOB-I, Rotating orbitals to semicanonical basis.
             *** Eigenvalues correspond to new basis. ***



 
  ORBITAL EIGENVALUES (ALPHA)  (1H = 27.2113838 eV)

       MO #        E(hartree)               E(eV)           FULLSYM    COMPSYM
       ----   --------------------   --------------------   -------   ---------
    1     1         -15.6798055177        -426.6692061582      Ag        Ag (1)
    2     2          -1.1536562433         -31.3925828316      Ag        Ag (1)
    3    20          -0.5676124800         -15.4455210529     T1u       B1u (5)
    4    14          -0.5676124800         -15.4455210529     T1u       B3u (3)
    5    10          -0.5676124800         -15.4455210529     T1u       B2u (2)
  +++++++++++++++++++++++++++++++++++++++++++++++++++++++++++++++++++++++++++++
    6     3           0.1388059478           3.7771019219      Ag        Ag (1)
    7    11           0.1558436388           4.2407210706     T1u       B2u (2)
    8    21           0.1558436388           4.2407210706     T1u       B1u (5)
    9    15           0.1558436388           4.2407210706     T1u       B3u (3)
   10    18           0.6504062989          17.6984554392      Hg       B1g (4)
   11    24           0.6504062989          17.6984554392      Hg       B3g (6)
   12    26           0.6504062989          17.6984554392      Hg       B2g (7)
   13     4           0.6504062989          17.6984554392      Hg        Ag (1)
   14     5           0.6504062989          17.6984554392      Hg        Ag (1)
   15    12           1.0292968228          28.0085909099     T1u       B2u (2)
   16    16           1.0292968228          28.0085909099     T1u       B3u (3)
   17    22           1.0292968228          28.0085909099     T1u       B1u (5)
   18     6           1.2223966611          33.2631047252      Ag        Ag (1)
   19     7           2.3833365935          64.8538868182      Hg        Ag (1)
   20     8           2.3833365935          64.8538868182      Hg        Ag (1)
   21    19           2.3833365935          64.8538868182      Hg       B1g (4)
   22    27           2.3833365935          64.8538868182      Hg       B2g (7)
   23    25           2.3833365935          64.8538868182      Hg       B3g (6)
   24     9          26.1748195426         712.2530609806      Ag        Ag (1)
   25    23          30.4476710453         828.5232632266     T1u       B3u (5)
   26    17          30.4476710453         828.5232632266     T1u       B1u (3)
   27    13          30.4476710453         828.5232632266     T1u       B2u (2)


 
  ORBITAL EIGENVALUES ( BETA)  (1H = 27.2113838 eV)

       MO #        E(hartree)               E(eV)           FULLSYM    COMPSYM
       ----   --------------------   --------------------   -------   ---------
    1     1         -15.5939424968        -424.3327545422      Ag        Ag (1)
    2     2          -0.7434469216         -20.2302195329      Ag        Ag (1)
  +++++++++++++++++++++++++++++++++++++++++++++++++++++++++++++++++++++++++++++
    3    20           0.0832906443           2.2664536895     T1u       B1u (5)
    4    14           0.0832906443           2.2664536895     T1u       B3u (3)
    5    10           0.0832906443           2.2664536895     T1u       B2u (2)
    6     3           0.1616025108           4.3974279477      Ag        Ag (1)
    7    21           0.2618224118           7.1245501409     T1u       B1u (5)
    8    11           0.2618224118           7.1245501409     T1u       B2u (2)
    9    15           0.2618224118           7.1245501409     T1u       B3u (3)
   10    18           0.7167643592          19.5041500851      Hg       B1g (4)
   11    24           0.7167643592          19.5041500851      Hg       B3g (6)
   12    26           0.7167643592          19.5041500851      Hg       B2g (7)
   13     4           0.7167643592          19.5041500851      Hg        Ag (1)
   14     5           0.7167643592          19.5041500851      Hg        Ag (1)
   15    22           1.2145104098          33.0485089152     T1u       B1u (5)
   16    12           1.2145104098          33.0485089152     T1u       B2u (2)
   17    16           1.2145104098          33.0485089152     T1u       B3u (3)
   18     6           1.3321308027          36.2491225710      Ag        Ag (1)
   19     7           2.5583036783          69.6149833168      Hg        Ag (1)
   20     8           2.5583036783          69.6149833168      Hg        Ag (1)
   21    19           2.5583036783          69.6149833168      Hg       B1g (4)
   22    25           2.5583036783          69.6149833168      Hg       B3g (6)
   23    27           2.5583036783          69.6149833168      Hg       B2g (7)
   24     9          26.2354130165         713.9018932567      Ag        Ag (1)
   25    23          30.5073680909         830.1477024474     T1u       B1u (5)
   26    17          30.5073680909         830.1477024474     T1u       B2u (3)
   27    13          30.5073680909         830.1477024474     T1u       B3u (2)


  VSCF finished.

  @CHECKOUT-I, Total execution time (CPU/WALL):        0.04/       0.10 seconds.
--executable xvscf finished with status     0 in        0.25 seconds (walltime).
 --invoking executable--
/home/nike/cfour_v2.00beta/bin/xvtran
 @GETMEM-I,  Allocated   30517 MB of main memory.
  Full UHF integral transformation
  Transformation of IIII integrals :
  2 passes through the AO integral file were required.
         634 AO integrals were read.
        1217 MO integrals (Spin case AAAA) were written to HF2AA.
        1218 MO integrals (Spin case BBBB) were written to HF2BB.
        2352 MO integrals (Spin case AABB) were written to HF2AB.
  Transformation of IIJJ integrals :
  2 passes through the AO integral file were required.
        2170 AO integrals were read.
        2352 MO integrals (Spin case AAAA) were written to HF2AA.
        2352 MO integrals (Spin case BBBB) were written to HF2BB.
        4704 MO integrals (Spin case AABB) were written to HF2AB.
  Transformation of IJIJ integrals :
  2 passes through the AO integral file were required.
        2993 AO integrals were read.
        3273 MO integrals (Spin case AAAA) were written to HF2AA.
        3273 MO integrals (Spin case BBBB) were written to HF2BB.
        6252 MO integrals (Spin case AABB) were written to HF2AB.
  Transformation of IJKL integrals :
  2 passes through the AO integral file were required.
        3304 AO integrals were read.
        3384 MO integrals (Spin case AAAA) were written to HF2AA.
        3384 MO integrals (Spin case BBBB) were written to HF2BB.
        6768 MO integrals (Spin case AABB) were written to HF2AB.
  Summary of active molecular orbitals: 
------------------------------------------------------------------------
                         * Spin case alpha *
 
  Index      Eigenvalue    Symmetry    Index      Eigenvalue    Symmetry
------------------------------------------------------------------------
     1       -15.6798055        1        15        30.4476710        2
     2        -1.1536562        1        16         0.1558436        3
     3        -0.5676125        2        17         1.0292968        3
     4        -0.5676125        3        18        30.4476710        3
     5        -0.5676125        5        19         0.6504063        4
     6         0.1388059        1        20         2.3833366        4
     7         0.6504063        1        21         0.1558436        5
     8         0.6504063        1        22         1.0292968        5
     9         1.2223967        1        23        30.4476710        5
    10         2.3833366        1        24         0.6504063        6
    11         2.3833366        1        25         2.3833366        6
    12        26.1748195        1        26         0.6504063        7
    13         0.1558436        2        27         2.3833366        7
    14         1.0292968        2
------------------------------------------------------------------------
------------------------------------------------------------------------
                         * Spin case beta *
 
  Index      Eigenvalue    Symmetry    Index      Eigenvalue    Symmetry
------------------------------------------------------------------------
     1       -15.5939425        1        15         0.2618224        3
     2        -0.7434469        1        16         1.2145104        3
     3         0.1616025        1        17        30.5073681        3
     4         0.7167644        1        18         0.7167644        4
     5         0.7167644        1        19         2.5583037        4
     6         1.3321308        1        20         0.0832906        5
     7         2.5583037        1        21         0.2618224        5
     8         2.5583037        1        22         1.2145104        5
     9        26.2354130        1        23        30.5073681        5
    10         0.0832906        2        24         0.7167644        6
    11         0.2618224        2        25         2.5583037        6
    12         1.2145104        2        26         0.7167644        7
    13        30.5073681        2        27         2.5583037        7
    14         0.0832906        3
------------------------------------------------------------------------
  @CHECKOUT-I, Total execution time (CPU/WALL):        0.03/       0.24 seconds.
--executable xvtran finished with status     0 in        0.39 seconds (walltime).
 --invoking executable--
/home/nike/cfour_v2.00beta/bin/xintprc
 @GETMEM-I,  Allocated   30517 MB of main memory.
  Processing integrals for CCSD calculation.
  @GMOIAA-I, Processing MO integrals for spin case AA.
  @GMOIAA-I, Generation of integral list completed.
                      TYPE                NUMBER
                      ----               --------
                      PPPP                  4527
                      PPPH                  3866
                      PPHH                   921
                      PHPH                   609
                      PHHH                   270
                      HHHH                    33

                     TOTAL                 10226
  @GMOIAA-I, Processing MO integrals for spin case BB.
  @GMOIAA-I, Generation of integral list completed.
                      TYPE                NUMBER
                      ----               --------
                      PPPP                  7333
                      PPPH                  2402
                      PPHH                   243
                      PHPH                   201
                      PHHH                    42
                      HHHH                     6

                     TOTAL                 10227
  @GMOIAB-I, Processing MO integrals for spin case AB.
                      TYPE                NUMBER
                      ----               --------
                      PPPP                 11227
                      PPPH1H                4949
                      PPPH2H                1886
                      PPHH                   850
                      PHPH1P                 165
                      PHPH2P                 768
                      PHHH1P                  69
                      PHHH2P                 144
                      HHHH                    18

                     TOTAL                 20076
            ----------------------------------------------
                     Projected spin multiplicities: 
            ----------------------------------------------
             <0|S^2|0>                  =    3.7500000000.
             <0|S^2 T2|0>               =    0.0000000000.
             Projected <0|S^2 exp(T)|0> =    3.7500000000.
             Approximate spin mult.     =    4.0000000000.
            ----------------------------------------------
   Largest T2 amplitudes for spin case AA:
   i   j   a   b             i   j   a   b             i   j   a   b
-----------------------------------------------------------------------------
[  4   3  17  14]-0.02475 [  5   3  22  14]-0.02475 [  5   4  22  17]-0.02475
[  5   3  24   7] 0.01488 [  4   3  19   8]-0.01470 [  4   3  20  11] 0.01462
[  3   2  14   9]-0.01430 [  5   2  22   9]-0.01430 [  4   2  17   9]-0.01430
[  5   3  21  14]-0.01274 [  5   4  21  17]-0.01274 [  4   3  16  14]-0.01274
[  4   3  17  13]-0.01274 [  5   4  22  16]-0.01274 [  5   3  22  13]-0.01274
-----------------------------------------------------------------------------
   Norm of T2AA vector (      312 symmetry allowed elements):  0.0824997281.
-----------------------------------------------------------------------------
   Largest T2 amplitudes for spin case BB:
   i   j   a   b             i   j   a   b             i   j   a   b
-----------------------------------------------------------------------------
[  2   1  13  12]-0.00125 [  2   1  17  16]-0.00125 [  2   1  23  22]-0.00125
[  2   1  23  21]-0.00101 [  2   1  13  11]-0.00101 [  2   1  17  15]-0.00101
[  2   1  12  11] 0.00070 [  2   1  16  15] 0.00070 [  2   1  22  21] 0.00070
[  2   1  23  20]-0.00069 [  2   1  17  14]-0.00069 [  2   1  13  10]-0.00069
[  2   1  22  20] 0.00052 [  2   1  16  14] 0.00052 [  2   1  12  10] 0.00052
-----------------------------------------------------------------------------
   Norm of T2BB vector (       42 symmetry allowed elements):  0.0034142441.
-----------------------------------------------------------------------------
   Largest T2 amplitudes for spin case AB:
       _       _                 _       _                 _       _
   i   j   a   b             i   j   a   b             i   j   a   b
-----------------------------------------------------------------------------
[  3   2  14   6]-0.02497 [  4   2  17   6]-0.02497 [  5   2  22   6]-0.02497
[  5   2  10  21]-0.01989 [  2   2   9   6]-0.01895 [  4   2   8  15]-0.01859
[  5   2   7  21] 0.01835 [  3   2  11  11] 0.01730 [  4   2  20  11]-0.01723
[  5   2  25  11]-0.01723 [  5   2  27  15]-0.01723 [  3   2  20  15]-0.01723
[  4   2  27  21]-0.01723 [  3   2  25  21]-0.01723 [  4   2  11  15]-0.01715
-----------------------------------------------------------------------------
   Norm of T2AB vector (      850 symmetry allowed elements):  0.1299171598.
-----------------------------------------------------------------------------
  @CHECKOUT-I, Total execution time (CPU/WALL):        0.04/       0.18 seconds.
--executable xintprc finished with status     0 in        0.36 seconds (walltime).
 --invoking executable--
/home/nike/cfour_v2.00beta/bin/xint
 @GETMEM-I,  Allocated   30517 MB of main memory.
  @CHECKOUT-I, Total execution time (CPU/WALL):        0.13/       0.14 seconds.
--executable xint finished with status     0 in        0.30 seconds (walltime).
 --invoking executable--
/home/nike/MRCC/dmrcc
 **********************************************************************
                          MRCC program system
 **********************************************************************
 
                              Written by
    Mihaly Kallay, Zoltan Rolik, Jozsef Csontos, Istvan Ladjanszki,
       Lorant Szegedy, Bence Ladoczki, Gyula Samu, Klara Petrov,
        Mate Farkas, Peter Nagy, David Mester, and Bence Hegely
 
        Department of Physical Chemistry and Materials Science
            Budapest University of Technology and Economics
                  Budapest P.O.Box 91, H-1521 Hungary
 
                              www.mrcc.hu

 ************************ 2018-07-06 13:55:53 *************************
 Executing minp...

 Reading input from MINP...
 
 Input file:
 
# N 2Z
basis=aCVDZ-EMSL
iface=cfour
uncontract=off
calc=CC(7)
mem=32GB
core=corr
itol=18
scftol=13
cctol=7
ccmaxit=999
scfmaxit=9999
scfiguess=ao
scftype=ROHF
rohftype=semicanonical
rest=2
charge=+0
refdet=serialno
1,2
3,4,5

symm=8
mult=4
#occ=3,0,0,0,0,1,0,0/1,0,0,0,0,1,0,0
geom
N

#Li 1 R

#R=3.065

#unit=angstroms

tprint=0.01
verbosity=3
nstate=10

 
 
 Checking keyword combinations...
 
 Keywords:
 
 active=none
 agrid=ld0006-ld0590
 basis=acvdz-emsl
 basopt=off
 bpcompo=0.985
 bpcompv=0.98
 bpdfo=0.985
 bpocc=0.985
 bppdo=0.985
 bppdv=0.98
 bpedo=0.985
 bpedv=0.98
 calc=cc(7)
 ccmaxit=999
 ccprog=mrcc
 cctol=7
 charge=+0
 cialg=disk
 ciguess=off
 cmpgrp=auto
 core=corr
 corembed=off
 dboc=off
 dendec=cholesky
 dens=0
 dfalg=invsqrt
 dfbasis_cor=none
 dfbasis_scf=none
 dfintran=ovirt
 dft=off
 diag=david
 domrad=10.d0
 drpaalg=fit
 ecp=auto
 edisp=off
 embed=off
 epert=none
 eps=0.975
 excrad=0.d0
 excrad_fin=0.000000000D+00
 freq=off
 gauss=spher
 geom=zmat
 gopt=off
 ghost=none
 gtol=7
 grtol=10
 hamilton=dc
 iface=cfour
 intalg=auto
 itol=18
 lcorthr=loose
 lccrest=off
 lmp2dens=on
 lnoepso=3e-5
 lnoepsv=1e-6
 localcc=off
 locintrf=disk
 maxact=off
 maxex=0
 bfbasis=none
 mem=32gb
 molden=on
 mulmet=0
 mult=4
 nacto=0
 nactv=0
 naf_cor=off
 naf_scf=off
 nafalg=albe
 naftyp=
 nchol=auto
 ndeps=1e-3
 nstate=10
 nsing=0
 ntrip=0
 occ=
 optalg=
 optmaxit=50
 optetol=1e-6
 optgtol=1e-4
 optstol=1e-3
 orblocc=off
 orbloco=off
 orblocv=off
 osveps=1e-3
 ovirt=off
 ovosnorb=80.0
 ptfreq=0.0
 popul=off
 pressure=100000
 qmmm=off
 refdet=serialno
 rest=2
 rgrid=log3
 rohftype=semicanonical
 scspe=1.d0
 scsps=1.2d0
 scspt=0.33333333333333
 scfalg=auto
 scfdamp=off
 scfdiis=on
 scfdiis_end=9999
 scfdiis_start=1
 scfdiis_step=1
 scfdtol=17
 scfext=10
 scfiguess=ao
 scflshift=off
 scfmaxit=9999
 scftype=rohf
 scftol=13
 spairtol=1e-4
 symm=8
 talg=occ
 temp=298.15
 test=off
 tprint=0.01
 uncontract=off
 unit=angs
 verbosity=3
 wpairtol=0.100000000E-05

 ************************ 2018-07-06 13:55:53 *************************
 Executing goldstone...

 Generation of CC equations in terms of H and T...
 Generation of antisymmetrized Goldstone diagrams...
 Number of diagrams in T^1 equations:    15
 Number of diagrams in T^2 equations:    38
 Number of diagrams in T^3 equations:    54
 Number of diagrams in T^4 equations:    81
 Number of diagrams in T^5 equations:   106
 Number of diagrams in T^6 equations:   141
 Number of diagrams in T^7 equations:   169
 Translation of diagrams to factorized equations...
 Optimizing intermediate calculation...
 Optimizing right-hand EOMCC calculation...
 Number of floating-point operations per iteration step:   1.1773E+12
 Probable CPU time per iteration step (hours):     11.77
 Required memory (Mbytes):    5083.5
 Number of intermediates:                                 627
 Number of intermediates to be stored:                    228
 Length of intermediate file (Mbytes):    8434.6

 ************************ 2018-07-06 13:55:55 *************************
 Executing xmrcc...

 **********************************************************************
 CC(                     7 ) calculation 
 
 
 Allocation of5083.5 Mbytes of memory...
 Number of spinorbitals:                    54
 Number of alpha electrons:                        5
 Number of beta electrons:                         2
 z-component of spin:  1.5
 Spatial symmetry:                      8
 Convergence criterion:  1.0E-07
 Construction of occupation graphs...
 Number of                     0 -fold excitations:                      1
 Number of                     1 -fold excitations:                     37
 Number of                     2 -fold excitations:                   1204
 Number of                     3 -fold excitations:                  21042
 Number of                     4 -fold excitations:                 187941
 Number of                     5 -fold excitations:                 811533
 Number of                     6 -fold excitations:                1540500
 Number of                     7 -fold excitations:                 989046
 Total number of configurations:                3551304
 Calculation of coupling coefficients...
 Length of intermediate file (Mbytes):    2602.8
 
 ======================================================================
 
 ======================================================================
 
 ======================================================================
 
 ======================================================================
 
 ======================================================================
 
 ======================================================================
 
 ======================================================================
 
 ======================================================================
 
 ======================================================================
 
 ======================================================================
 
 Memory requirements /Mbyte/: 
               Minimal        Optimal
 Real*8:      16764.7403     16764.7403
 Integer:        25.4269
 Total:       16790.1672     16790.1672
 

 ************************ 2018-07-06 13:56:46 *************************
 Executing goldstone...

 Generation of CC equations in terms of H and T...
 Generation of antisymmetrized Goldstone diagrams...
 Number of diagrams in T^1 equations:     8
 Translation of diagrams to factorized equations...
 Optimizing intermediate calculation...
 Optimizing right-hand EOMCC calculation...
 Number of floating-point operations per iteration step:   1.1344E+03
 Probable CPU time per iteration step (hours):      0.00
 Required memory (Mbytes):      41.3
 Number of intermediates:                                  19
 Number of intermediates to be stored:                      9
 Length of intermediate file (Mbytes):       0.1

 ************************ 2018-07-06 13:56:46 *************************
 Executing xmrcc...

 **********************************************************************
 CC(                     1 ) calculation 
 
 
 Allocation of 100.0 Mbytes of memory...
 Number of spinorbitals:                    54
 Number of alpha electrons:                        5
 Number of beta electrons:                         2
 z-component of spin:  1.5
 Spatial symmetry:                      8
 Convergence criterion:  1.0E-07
 Construction of occupation graphs...
 Number of                     0 -fold excitations:                      1
 Number of                     1 -fold excitations:                     37
 Total number of configurations:                     38
 Calculation of coupling coefficients...
 Length of intermediate file (Mbytes):       0.1
 
 ======================================================================
 
 ======================================================================
 
 ======================================================================
 
 ======================================================================
 
 ======================================================================
 
 ======================================================================
 
 ======================================================================
 
 ======================================================================
 
 ======================================================================
 
 ======================================================================
 
 Memory requirements /Mbyte/: 
               Minimal        Optimal
 Real*8:          0.1613         4.0696
 Integer:         3.3004
 Total:           3.4617         7.3700
 

 ************************ 2018-07-06 13:56:47 *************************
 Executing mrcc...

 **********************************************************************
 LR-CCS calculation                                                     
 
 
 OpenMP parallel version is running.
 Number of CPUs:  32
 Allocation of    4.1 Mbytes of memory...
 Number of spinorbitals:  54
 Number of alpha electrons:  5
 Number of beta  electrons:  2
 z-component of spin:  1.5
 Spatial symmetry: 8
 Convergence criterion:  1.0E-07
 Construction of occupation graphs...
 Number of 0-fold excitations: 1
 Number of 1-fold excitations: 37
 Total number of determinants: 38
 Calculation of coupling coefficients...
 Initial cluster amplitudes are generated.
 Length of intermediate file (Mbytes):       0.1
 Reading integral list from unit 55...
 Sorting integrals...
 Sorting integrals...
 Sorting integrals...
 Sorting integrals...
 Energy of reference determinant [au]:     -54.389902981976
 Calculation of diagonal elements of Hamiltonian...
 Calculation of MP denominators...
 
 Starting CC iteration...
 ======================================================================
 Norm of residual vector:     0.07785618
 CPU time [min]:     0.513                   Wall time [min]:     0.029
 
 Iteration  1  CC energy:   -54.39204445  Energy decrease:   0.00214147
 ======================================================================
 Norm of residual vector:     0.01874114
 CPU time [min]:     0.516                   Wall time [min]:     0.029
 
 Iteration  2  CC energy:   -54.39296921  Energy decrease:   0.00092476
 ======================================================================
 Norm of residual vector:     0.00254935
 CPU time [min]:     0.520                   Wall time [min]:     0.029
 
 Iteration  3  CC energy:   -54.39302429  Energy decrease:   0.00005508
 ======================================================================
 Norm of residual vector:     0.00033035
 CPU time [min]:     0.524                   Wall time [min]:     0.030
 
 Iteration  4  CC energy:   -54.39302420  Energy decrease:   0.00000009
 ======================================================================
 Norm of residual vector:     0.00001898
 CPU time [min]:     0.528                   Wall time [min]:     0.030
 
 Iteration  5  CC energy:   -54.39302408  Energy decrease:   0.00000013
 ======================================================================
 Norm of residual vector:     0.00000367
 CPU time [min]:     0.533                   Wall time [min]:     0.030
 
 Iteration  6  CC energy:   -54.39302408  Energy decrease:   0.00000001
 ======================================================================
 Norm of residual vector:     0.00000009
 CPU time [min]:     0.536                   Wall time [min]:     0.030
 
 Iteration  7  CC energy:   -54.39302408  Energy decrease:   6.0588E-11
 ======================================================================
 
 Iteration has converged in  7 steps.
 
 Final results:
 Total CCS energy [au]:              -54.393024082515
 Spin multiplicity:                     2
 
 
 
 Dominant cluster amplitudes
 Printing threshold:  1.00E-02
 
    1.000000  Reference determinant                                     
    0.038689  2b -> 6b                                                  
   -0.025274  2b -> 18b                                                 
   -0.025066  2a -> 6a                                                  
    0.020118  2a -> 18a                                                 
 
 Starting right-hand LR-CC iteration for root                      2 ...
 ======================================================================
 Norm of residual vector:     0.08611449      Convergence:   1.00000000
 CPU time [min]:     0.669                   Wall time [min]:     0.035
 
 Iteration  1  CI energy:   -53.88961792  Energy decrease:   0.50340616
 ======================================================================
 Norm of residual vector:     0.08923573      Convergence:   0.56679990
 CPU time [min]:     0.699                   Wall time [min]:     0.036
 
 Iteration  2  CI energy:   -53.89862156  Energy decrease:   0.00900364
 ======================================================================
 Norm of residual vector:     0.00849881      Convergence:   0.13929777
 CPU time [min]:     0.722                   Wall time [min]:     0.037
 
 Iteration  3  CI energy:   -53.91070664  Energy decrease:   0.01208507
 ======================================================================
 Norm of residual vector:     0.00076924      Convergence:   0.00501523
 CPU time [min]:     0.729                   Wall time [min]:     0.037
 
 Iteration  4  CI energy:   -53.91072389  Energy decrease:   0.00001726
 ======================================================================
 Norm of residual vector:     0.00027481      Convergence:   0.00081391
 CPU time [min]:     0.740                   Wall time [min]:     0.037
 
 Iteration  5  CI energy:   -53.91072433  Energy decrease:   0.00000044
 ======================================================================
 Norm of residual vector:     0.00006092      Convergence:   0.00042362
 CPU time [min]:     0.754                   Wall time [min]:     0.038
 
 Iteration  6  CI energy:   -53.91072439  Energy decrease:   0.00000006
 ======================================================================
 Norm of residual vector:     0.00000462      Convergence:   0.00002696
 CPU time [min]:     0.769                   Wall time [min]:     0.038
 
 Iteration  7  CI energy:   -53.91072439  Energy decrease:   3.5171E-09
 ======================================================================
 Norm of residual vector:     0.00000011      Convergence:   0.00000158
 CPU time [min]:     0.786                   Wall time [min]:     0.039
 
 Iteration  8  CI energy:   -53.91072439  Energy decrease:   2.5987E-10
 ======================================================================
 Norm of residual vector:     0.0000E+00      Convergence:   1.0302E-07
 CPU time [min]:     0.806                   Wall time [min]:     0.040
 
 Iteration  9  CI energy:   -53.91072439  Energy decrease:   1.0090E-12
 ======================================================================
 
 Iteration has converged in  9 steps.
 
 Final results:
 Total LR-CCS energy [au]:           -53.910724390851
 Excitation energy [eV]:          13.1240
 Excitation energy [cm^-1]:   105852.55
 Absorption wavelength [nm]:      94.47
 Spin multiplicity:                     2
 
 
 
 Dominant CI coefficients
 Printing threshold:  1.00E-02
 
    0.016755  2a -> 14a                                                 
   -0.010213  2a -> 20a                                                 
    0.404602  5a -> 8a                                                  
    0.053703  5a -> 15a                                                 
   -0.809203  4a -> 9a                                                  
   -0.107407  4a -> 16a                                                 
    0.404602  3a -> 7a                                                  
    0.053703  3a -> 17a                                                 
 
 Starting right-hand LR-CC iteration for root                      3 ...
 ======================================================================
 Norm of residual vector:     0.08611449      Convergence:   1.00000000
 CPU time [min]:     0.814                   Wall time [min]:     0.040
 
 Iteration  1  CI energy:   -53.88961792  Energy decrease:   0.50340616
 ======================================================================
 Norm of residual vector:     0.08923573      Convergence:   0.56679990
 CPU time [min]:     0.824                   Wall time [min]:     0.040
 
 Iteration  2  CI energy:   -53.89862156  Energy decrease:   0.00900364
 ======================================================================
 Norm of residual vector:     0.00849881      Convergence:   0.13929777
 CPU time [min]:     0.928                   Wall time [min]:     0.044
 
 Iteration  3  CI energy:   -53.91070664  Energy decrease:   0.01208507
 ======================================================================
 Norm of residual vector:     0.00076924      Convergence:   0.00501523
 CPU time [min]:     0.936                   Wall time [min]:     0.044
 
 Iteration  4  CI energy:   -53.91072389  Energy decrease:   0.00001726
 ======================================================================
 Norm of residual vector:     0.00027481      Convergence:   0.00081391
 CPU time [min]:     0.943                   Wall time [min]:     0.044
 
 Iteration  5  CI energy:   -53.91072433  Energy decrease:   0.00000044
 ======================================================================
 Norm of residual vector:     0.00006092      Convergence:   0.00042362
 CPU time [min]:     0.951                   Wall time [min]:     0.045
 
 Iteration  6  CI energy:   -53.91072439  Energy decrease:   0.00000006
 ======================================================================
 Norm of residual vector:     0.00000462      Convergence:   0.00002696
 CPU time [min]:     0.961                   Wall time [min]:     0.045
 
 Iteration  7  CI energy:   -53.91072439  Energy decrease:   3.5171E-09
 ======================================================================
 Norm of residual vector:     0.00000011      Convergence:   0.00000158
 CPU time [min]:     0.972                   Wall time [min]:     0.045
 
 Iteration  8  CI energy:   -53.91072439  Energy decrease:   2.5987E-10
 ======================================================================
 Norm of residual vector:     0.0000E+00      Convergence:   1.0302E-07
 CPU time [min]:     0.983                   Wall time [min]:     0.046
 
 Iteration  9  CI energy:   -53.91072439  Energy decrease:   1.0090E-12
 ======================================================================
 
 Iteration has converged in  9 steps.
 
 Final results:
 Total LR-CCS energy [au]:           -53.910724390851
 Excitation energy [eV]:          13.1240
 Excitation energy [cm^-1]:   105852.55
 Absorption wavelength [nm]:      94.47
 Spin multiplicity:                     2
 
 
 
 Dominant CI coefficients
 Printing threshold:  1.00E-02
 
    0.012476  2a -> 12a                                                 
   -0.011901  2a -> 14a                                                 
    0.010302  2a -> 20a                                                 
   -0.809203  5a -> 8a                                                  
   -0.107407  5a -> 15a                                                 
    0.404602  4a -> 9a                                                  
    0.053703  4a -> 16a                                                 
    0.404602  3a -> 7a                                                  
    0.053703  3a -> 17a                                                 
 
 Starting right-hand LR-CC iteration for root                      4 ...
 ======================================================================
 Norm of residual vector:     0.08611449      Convergence:   1.00000000
 CPU time [min]:     0.988                   Wall time [min]:     0.046
 
 Iteration  1  CI energy:   -53.88961792  Energy decrease:   0.50340616
 ======================================================================
 Norm of residual vector:     0.08923573      Convergence:   0.56679990
 CPU time [min]:     0.993                   Wall time [min]:     0.046
 
 Iteration  2  CI energy:   -53.89862156  Energy decrease:   0.00900364
 ======================================================================
 Norm of residual vector:     0.00849881      Convergence:   0.13929777
 CPU time [min]:     0.999                   Wall time [min]:     0.046
 
 Iteration  3  CI energy:   -53.91070664  Energy decrease:   0.01208507
 ======================================================================
 Norm of residual vector:     0.00076924      Convergence:   0.00501523
 CPU time [min]:     1.005                   Wall time [min]:     0.046
 
 Iteration  4  CI energy:   -53.91072389  Energy decrease:   0.00001726
 ======================================================================
 Norm of residual vector:     0.00027481      Convergence:   0.00081391
 CPU time [min]:     1.013                   Wall time [min]:     0.047
 
 Iteration  5  CI energy:   -53.91072433  Energy decrease:   0.00000044
 ======================================================================
 Norm of residual vector:     0.00006092      Convergence:   0.00042362
 CPU time [min]:     1.022                   Wall time [min]:     0.047
 
 Iteration  6  CI energy:   -53.91072439  Energy decrease:   0.00000006
 ======================================================================
 Norm of residual vector:     0.00000462      Convergence:   0.00002696
 CPU time [min]:     1.031                   Wall time [min]:     0.047
 
 Iteration  7  CI energy:   -53.91072439  Energy decrease:   3.5171E-09
 ======================================================================
 Norm of residual vector:     0.00000011      Convergence:   0.00000158
 CPU time [min]:     1.041                   Wall time [min]:     0.048
 
 Iteration  8  CI energy:   -53.91072439  Energy decrease:   2.5987E-10
 ======================================================================
 Norm of residual vector:     0.0000E+00      Convergence:   1.0302E-07
 CPU time [min]:     1.059                   Wall time [min]:     0.048
 
 Iteration  9  CI energy:   -53.91072439  Energy decrease:   1.0090E-12
 ======================================================================
 
 Iteration has converged in  9 steps.
 
 Final results:
 Total LR-CCS energy [au]:           -53.910724390851
 Excitation energy [eV]:          13.1240
 Excitation energy [cm^-1]:   105852.55
 Absorption wavelength [nm]:      94.47
 Spin multiplicity:                     2
 
 
 
 Dominant CI coefficients
 Printing threshold:  1.00E-02
 
   -0.016545  2a -> 12a                                                 
   -0.011844  2a -> 19a                                                 
    0.404602  5a -> 8a                                                  
    0.053703  5a -> 15a                                                 
    0.404602  4a -> 9a                                                  
    0.053703  4a -> 16a                                                 
   -0.809203  3a -> 7a                                                  
   -0.107407  3a -> 17a                                                 
 
 Starting right-hand LR-CC iteration for root                      5 ...
 ======================================================================
 Norm of residual vector:     0.09781895      Convergence:   1.00000000
 CPU time [min]:     1.068                   Wall time [min]:     0.049
 
 Iteration  1  CI energy:   -53.74661802  Energy decrease:   0.64640606
 ======================================================================
 Norm of residual vector:     0.03080553      Convergence:   0.18585541
 CPU time [min]:     1.077                   Wall time [min]:     0.049
 
 Iteration  2  CI energy:   -53.75270201  Energy decrease:   0.00608399
 ======================================================================
 Norm of residual vector:     0.02840432      Convergence:   0.07718644
 CPU time [min]:     1.090                   Wall time [min]:     0.049
 
 Iteration  3  CI energy:   -53.75195240  Energy decrease:   0.00074961
 ======================================================================
 Norm of residual vector:     0.00045514      Convergence:   0.00661508
 CPU time [min]:     1.104                   Wall time [min]:     0.050
 
 Iteration  4  CI energy:   -53.75221763  Energy decrease:   0.00026522
 ======================================================================
 Norm of residual vector:     0.00002722      Convergence:   0.00020864
 CPU time [min]:     1.118                   Wall time [min]:     0.050
 
 Iteration  5  CI energy:   -53.75221981  Energy decrease:   0.00000219
 ======================================================================
 Norm of residual vector:     0.0000E+00      Convergence:   1.0337E-05
 CPU time [min]:     1.135                   Wall time [min]:     0.051
 
 Iteration  6  CI energy:   -53.75221999  Energy decrease:   0.00000018
 ======================================================================
 
 Iteration has converged in  6 steps.
 
 Final results:
 Total LR-CCS energy [au]:           -53.752219990126
 Excitation energy [eV]:          17.4372
 Excitation energy [cm^-1]:   140640.25
 Absorption wavelength [nm]:      71.10
 Spin multiplicity:                     2
 
 
 
 Dominant CI coefficients
 Printing threshold:  1.00E-02
 
   -0.039500  Reference determinant                                     
    0.961250  2b -> 6b                                                  
   -0.065664  2b -> 18b                                                 
   -0.028480  2a -> 6a                                                  
    0.034230  2a -> 18a                                                 
   -0.137723  5a -> 8a                                                  
    0.061211  5a -> 15a                                                 
   -0.137723  4a -> 9a                                                  
    0.061211  4a -> 16a                                                 
   -0.137723  3a -> 7a                                                  
    0.061211  3a -> 17a                                                 
 
 Starting right-hand LR-CC iteration for root                      6 ...
 ======================================================================
 Norm of residual vector:     0.07012432      Convergence:   1.00000000
 CPU time [min]:     1.142                   Wall time [min]:     0.051
 
 Iteration  1  CI energy:   -53.31062590  Energy decrease:   1.08239818
 ======================================================================
 Norm of residual vector:     0.01613477      Convergence:   0.11240064
 CPU time [min]:     1.151                   Wall time [min]:     0.051
 
 Iteration  2  CI energy:   -53.31529226  Energy decrease:   0.00466636
 ======================================================================
 Norm of residual vector:     0.01150017      Convergence:   0.13378490
 CPU time [min]:     1.161                   Wall time [min]:     0.052
 
 Iteration  3  CI energy:   -53.31641391  Energy decrease:   0.00112165
 ======================================================================
 Norm of residual vector:     0.00288913      Convergence:   0.00690175
 CPU time [min]:     1.171                   Wall time [min]:     0.052
 
 Iteration  4  CI energy:   -53.31642948  Energy decrease:   0.00001557
 ======================================================================
 Norm of residual vector:     0.00010784      Convergence:   0.00086048
 CPU time [min]:     1.183                   Wall time [min]:     0.053
 
 Iteration  5  CI energy:   -53.31642690  Energy decrease:   0.00000258
 ======================================================================
 Norm of residual vector:     0.00000204      Convergence:   0.00018265
 CPU time [min]:     1.198                   Wall time [min]:     0.053
 
 Iteration  6  CI energy:   -53.31642694  Energy decrease:   0.00000004
 ======================================================================
 Norm of residual vector:     0.0000E+00      Convergence:   1.1941E-07
 CPU time [min]:     1.219                   Wall time [min]:     0.054
 
 Iteration  7  CI energy:   -53.31642694  Energy decrease:   1.0850E-11
 ======================================================================
 
 Iteration has converged in  7 steps.
 
 Final results:
 Total LR-CCS energy [au]:           -53.316426939335
 Excitation energy [eV]:          29.2957
 Excitation energy [cm^-1]:   236285.78
 Absorption wavelength [nm]:      42.32
 Spin multiplicity:                     2
 
 
 
 Dominant CI coefficients
 Printing threshold:  1.00E-02
 
   -0.946921  2b -> 14b                                                 
    0.036195  2b -> 19b                                                 
    0.075950  2a -> 12a                                                 
   -0.022111  2a -> 14a                                                 
    0.028998  5a -> 8a                                                  
   -0.222305  5a -> 15a                                                 
    0.011280  4a -> 16a                                                 
   -0.027526  3a -> 7a                                                  
    0.211026  3a -> 17a                                                 
 
 Starting right-hand LR-CC iteration for root                      7 ...
 ======================================================================
 Norm of residual vector:     0.07012432      Convergence:   1.00000000
 CPU time [min]:     1.227                   Wall time [min]:     0.054
 
 Iteration  1  CI energy:   -53.31062590  Energy decrease:   1.08239818
 ======================================================================
 Norm of residual vector:     0.01613477      Convergence:   0.11240064
 CPU time [min]:     1.238                   Wall time [min]:     0.054
 
 Iteration  2  CI energy:   -53.31529226  Energy decrease:   0.00466636
 ======================================================================
 Norm of residual vector:     0.01150017      Convergence:   0.13378490
 CPU time [min]:     1.251                   Wall time [min]:     0.055
 
 Iteration  3  CI energy:   -53.31641391  Energy decrease:   0.00112165
 ======================================================================
 Norm of residual vector:     0.00288913      Convergence:   0.00690175
 CPU time [min]:     1.262                   Wall time [min]:     0.055
 
 Iteration  4  CI energy:   -53.31642948  Energy decrease:   0.00001557
 ======================================================================
 Norm of residual vector:     0.00010784      Convergence:   0.00086048
 CPU time [min]:     1.269                   Wall time [min]:     0.056
 
 Iteration  5  CI energy:   -53.31642690  Energy decrease:   0.00000258
 ======================================================================
 Norm of residual vector:     0.00000204      Convergence:   0.00018265
 CPU time [min]:     1.278                   Wall time [min]:     0.056
 
 Iteration  6  CI energy:   -53.31642694  Energy decrease:   0.00000004
 ======================================================================
 Norm of residual vector:     0.0000E+00      Convergence:   1.1941E-07
 CPU time [min]:     1.287                   Wall time [min]:     0.056
 
 Iteration  7  CI energy:   -53.31642694  Energy decrease:   1.0857E-11
 ======================================================================
 
 Iteration has converged in  7 steps.
 
 Final results:
 Total LR-CCS energy [au]:           -53.316426939335
 Excitation energy [eV]:          29.2957
 Excitation energy [cm^-1]:   236285.78
 Absorption wavelength [nm]:      42.32
 Spin multiplicity:                     2
 
 
 
 Dominant CI coefficients
 Printing threshold:  1.00E-02
 
   -0.946921  2b -> 12b                                                 
    0.036195  2b -> 20b                                                 
    0.022111  2a -> 12a                                                 
    0.075950  2a -> 14a                                                 
   -0.015043  5a -> 8a                                                  
    0.115323  5a -> 15a                                                 
    0.032634  4a -> 9a                                                  
   -0.250184  4a -> 16a                                                 
   -0.017591  3a -> 7a                                                  
    0.134860  3a -> 17a                                                 
 
 Starting right-hand LR-CC iteration for root                      8 ...
 ======================================================================
 Norm of residual vector:     0.18039385      Convergence:   1.00000000
 CPU time [min]:     1.292                   Wall time [min]:     0.056
 
 Iteration  1  CI energy:   -53.23334786  Energy decrease:   1.15967622
 ======================================================================
 Norm of residual vector:     0.11336082      Convergence:   0.57837285
 CPU time [min]:     1.297                   Wall time [min]:     0.057
 
 Iteration  2  CI energy:   -53.30254544  Energy decrease:   0.06919758
 ======================================================================
 Norm of residual vector:     0.07074491      Convergence:   0.52996799
 CPU time [min]:     1.303                   Wall time [min]:     0.057
 
 Iteration  3  CI energy:   -53.29714504  Energy decrease:   0.00540040
 ======================================================================
 Norm of residual vector:     0.06257822      Convergence:   0.18316224
 CPU time [min]:     1.310                   Wall time [min]:     0.057
 
 Iteration  4  CI energy:   -53.29393097  Energy decrease:   0.00321408
 ======================================================================
 Norm of residual vector:     0.00176664      Convergence:   0.01425614
 CPU time [min]:     1.318                   Wall time [min]:     0.057
 
 Iteration  5  CI energy:   -53.29463721  Energy decrease:   0.00070624
 ======================================================================
 Norm of residual vector:     0.00018971      Convergence:   0.00086620
 CPU time [min]:     1.331                   Wall time [min]:     0.058
 
 Iteration  6  CI energy:   -53.29463889  Energy decrease:   0.00000168
 ======================================================================
 Norm of residual vector:     0.00000773      Convergence:   0.00017173
 CPU time [min]:     1.347                   Wall time [min]:     0.058
 
 Iteration  7  CI energy:   -53.29463890  Energy decrease:   0.00000001
 ======================================================================
 Norm of residual vector:     0.00000150      Convergence:   0.00001219
 CPU time [min]:     1.364                   Wall time [min]:     0.059
 
 Iteration  8  CI energy:   -53.29463890  Energy decrease:   1.0480E-10
 ======================================================================
 Norm of residual vector:     0.0000E+00      Convergence:   6.8280E-06
 CPU time [min]:     1.385                   Wall time [min]:     0.060
 
 Iteration  9  CI energy:   -53.29463890  Energy decrease:   3.1406E-12
 ======================================================================
 
 Iteration has converged in  9 steps.
 
 Final results:
 Total LR-CCS energy [au]:           -53.294638904198
 Excitation energy [eV]:          29.8886
 Excitation energy [cm^-1]:   241067.70
 Absorption wavelength [nm]:      41.48
 Spin multiplicity:                     2
 
 
 
 Dominant CI coefficients
 Printing threshold:  1.00E-02
 
    0.311526  2b -> 12b                                                 
   -0.014045  2b -> 14b                                                 
   -0.020044  2b -> 20b                                                 
    0.020644  2a -> 12a                                                 
    0.085005  2a -> 14a                                                 
   -0.012873  2a -> 20a                                                 
   -0.051669  5a -> 8a                                                  
    0.382635  5a -> 15a                                                 
    0.103338  4a -> 9a                                                  
   -0.765269  4a -> 16a                                                 
   -0.051669  3a -> 7a                                                  
    0.382635  3a -> 17a                                                 
 
 Starting right-hand LR-CC iteration for root                      9 ...
 ======================================================================
 Norm of residual vector:     0.18039385      Convergence:   1.00000000
 CPU time [min]:     1.390                   Wall time [min]:     0.060
 
 Iteration  1  CI energy:   -53.23334786  Energy decrease:   1.15967622
 ======================================================================
 Norm of residual vector:     0.11336082      Convergence:   0.57837285
 CPU time [min]:     1.395                   Wall time [min]:     0.060
 
[...]
   -0.023659  4a 2b -> 14a 4b                                           
    0.018449  4a 2b -> 18a 4b                                           
    0.019024  4a 2b -> 6a 9b                                            
   -0.059961  4a 2b -> 12a 9b                                           
   -0.026426  4a 2b -> 14a 9b                                           
    0.024414  4a 2b -> 18a 9b                                           
   -0.021931  4a 2b -> 12a 16b                                          
    0.010721  4a 2b -> 18a 16b                                          
   -0.013687  4a 2b -> 9a 6b                                            
   -0.010859  4a 2b -> 9a 12b                                           
   -0.019899  4a 2b -> 16a 12b                                          
   -0.020379  4a 2b -> 9a 14b                                           
   -0.020750  4a 2b -> 16a 14b                                          
   -0.018320  4a 2b -> 17a 13b                                          
    0.016539  4a 2b -> 17a 22b                                          
    0.050122  4a 2b -> 13a 3b                                           
    0.040681  4a 2b -> 13a 7b                                           
   -0.052618  3a 2b -> 6a 3b                                            
   -0.069609  3a 2b -> 12a 3b                                           
   -0.020290  3a 2b -> 14a 3b                                           
   -0.037042  3a 2b -> 18a 3b                                           
   -0.010225  3a 2b -> 19a 3b                                           
   -0.038197  3a 2b -> 6a 7b                                            
   -0.076774  3a 2b -> 12a 7b                                           
   -0.022383  3a 2b -> 14a 7b                                           
   -0.049018  3a 2b -> 18a 7b                                           
   -0.012627  3a 2b -> 19a 7b                                           
   -0.026442  3a 2b -> 12a 17b                                          
   -0.021525  3a 2b -> 18a 17b                                          
    0.012689  3a 2b -> 15a 11b                                          
   -0.011881  3a 2b -> 15a 23b                                          
    0.012627  3a 2b -> 16a 13b                                          
   -0.011826  3a 2b -> 16a 22b                                          
    0.027481  3a 2b -> 7a 6b                                            
   -0.019846  3a 2b -> 17a 6b                                           
   -0.010690  3a 2b -> 7a 12b                                           
   -0.020435  3a 2b -> 17a 12b                                          
   -0.016828  3a 2b -> 7a 14b                                           
   -0.032080  3a 2b -> 17a 14b                                          
   -0.012823  3a 2b -> 7a 18b                                           
    0.011201  3a 2b -> 17a 18b                                          
   -0.057464  3a 2b -> 11a 5b                                           
   -0.049444  3a 2b -> 11a 8b                                           
   -0.057353  3a 2b -> 13a 4b                                           
   -0.049361  3a 2b -> 13a 9b                                           
   -0.128825  4a 5a -> 8a 9a                                            
   -0.027875  4a 5a -> 10a 14a                                          
    0.025282  4a 5a -> 9a 15a                                           
   -0.025470  4a 5a -> 8a 16a                                           
    0.015678  4a 5a -> 15a 16a                                          
    0.013855  2a 3a -> 6a 7a                                            
   -0.012773  2a 3a -> 6a 17a                                           
   -0.010644  2a 3a -> 17a 18a                                          
    0.012079  2a 3a -> 17a 19a                                          
   -0.064163  3a 5a -> 7a 8a                                            
   -0.029317  3a 5a -> 6a 11a                                           
   -0.014911  3a 5a -> 11a 12a                                          
   -0.049006  3a 5a -> 7a 15a                                           
   -0.023728  3a 5a -> 8a 17a                                           
   -0.015145  3a 5a -> 11a 18a                                          
    0.013208  3a 5a -> 6a 23a                                           
   -0.012620  3a 5a -> 18a 23a                                          
   -0.064662  3a 4a -> 7a 9a                                            
   -0.029241  3a 4a -> 6a 13a                                           
    0.012664  3a 4a -> 12a 13a                                          
   -0.049011  3a 4a -> 7a 16a                                           
   -0.023536  3a 4a -> 9a 17a                                           
   -0.015106  3a 4a -> 13a 18a                                          
    0.013174  3a 4a -> 6a 22a                                           
   -0.012588  3a 4a -> 18a 22a                                          
   -0.012671  2a 5a 2b -> 8a 9a 9b                                      
    0.012675  2a 4a 2b -> 8a 9a 8b                                      
    0.018835  4a 5a 2b -> 8a 9a 6b                                      
   -0.016241  4a 5a 2b -> 8a 9a 18b                                     
    0.011477  2a 4a 5a -> 6a 8a 9a                                      
   -0.012905  2a 4a 5a -> 8a 9a 18a                                     
   -0.012294  3a 4a 5a -> 7a 9a 15a                                     
    0.012199  3a 4a 5a -> 7a 8a 16a                                     
   -0.024493  3a 4a 5a -> 8a 9a 17a                                     
 
 Starting right-hand LR-CC iteration for root                     10 ...
 ======================================================================
 Norm of residual vector:     0.00004033      Convergence:   1.00000000
 CPU time [min]: 21968.174                   Wall time [min]:   845.905
 
 Iteration  1  CI energy:   -53.44655415  Energy decrease:   1.07975061
 ======================================================================
 Norm of residual vector:     0.00000219      Convergence:   0.00000157
 CPU time [min]: 22383.453                   Wall time [min]:   861.942
 
 Iteration  2  CI energy:   -53.44655415  Energy decrease:   6.8754E-10
 ======================================================================
 Norm of residual vector:     0.00000228      Convergence:   0.00000012
 CPU time [min]: 22802.522                   Wall time [min]:   878.006
 
 Iteration  3  CI energy:   -53.44655415  Energy decrease:   9.9782E-11
 ======================================================================
 Norm of residual vector:     0.00000237      Convergence:   0.00000009
 CPU time [min]: 23225.573                   Wall time [min]:   894.325
 
 Iteration  4  CI energy:   -53.44655415  Energy decrease:   1.6793E-10
 ======================================================================
 Norm of residual vector:     0.00000255      Convergence:   0.00000071
 CPU time [min]: 23637.369                   Wall time [min]:   910.453
 
 Iteration  5  CI energy:   -53.44655415  Energy decrease:   6.2812E-12
 ======================================================================
 Norm of residual vector:     0.00000042      Convergence:   0.00000050
 CPU time [min]: 24062.803                   Wall time [min]:   927.747
 
 Iteration  6  CI energy:   -53.44655416  Energy decrease:   1.9661E-09
 ======================================================================
 Norm of residual vector:     0.00000060      Convergence:   0.00000033
 CPU time [min]: 24489.725                   Wall time [min]:   945.486
 
 Iteration  7  CI energy:   -53.44655415  Energy decrease:   1.3677E-10
 ======================================================================
 Norm of residual vector:     0.00000145      Convergence:   0.00000076
 CPU time [min]: 24911.960                   Wall time [min]:   962.790
 
 Iteration  8  CI energy:   -53.44655416  Energy decrease:   2.0983E-09
 ======================================================================
 Norm of residual vector:     0.00000059      Convergence:   0.00000036
 CPU time [min]: 25335.025                   Wall time [min]:   979.358
 
 Iteration  9  CI energy:   -53.44655415  Energy decrease:   2.5108E-09
 ======================================================================
 Norm of residual vector:     0.00000044      Convergence:   0.00000025
 CPU time [min]: 25769.380                   Wall time [min]:   997.443
 
 Iteration 10  CI energy:   -53.44655415  Energy decrease:   6.9697E-11
 ======================================================================
 Norm of residual vector:     0.00000206      Convergence:   0.00000123
 CPU time [min]: 26203.143                   Wall time [min]:  1015.080
 
 Iteration 11  CI energy:   -53.44655415  Energy decrease:   3.1707E-10
 ======================================================================
 Norm of residual vector:     0.00000048      Convergence:   0.00000022
 CPU time [min]: 26640.803                   Wall time [min]:  1032.613
 
 Iteration 12  CI energy:   -53.44655415  Energy decrease:   3.4642E-10
 ======================================================================
 Norm of residual vector:     0.00000012      Convergence:   0.00000010
 CPU time [min]: 27063.342                   Wall time [min]:  1049.256
 
 Iteration 13  CI energy:   -53.44655415  Energy decrease:   2.9760E-10
 ======================================================================
 Norm of residual vector:     0.0000E+00      Convergence:   6.9232E-08
 CPU time [min]: 27489.384                   Wall time [min]:  1065.350
 
 Iteration 14  CI energy:   -53.44655416  Energy decrease:   9.5596E-11
 ======================================================================
 
 Iteration has converged in 14 steps.
 
 Final results:
 Total LR-CC(7) energy [au]:         -53.446554155056
 Excitation energy [eV]:          29.3815
 Excitation energy [cm^-1]:   236977.88
 Absorption wavelength [nm]:      42.20
 Spin multiplicity:                     2
 
 Dominant CI coefficients
 Printing threshold:  1.00E-02
 
   -0.142418  2b -> 12b                                                 
    0.275062  2b -> 14b                                                 
    0.011807  2a -> 12a                                                 
   -0.011246  2a -> 14a                                                 
   -0.061567  5a -> 8a                                                  
    0.715045  5a -> 15a                                                 
    0.030742  4a -> 9a                                                  
   -0.357038  4a -> 16a                                                 
    0.030825  3a -> 7a                                                  
   -0.358008  3a -> 17a                                                 
   -0.017224  2a 2b -> 6a 14b                                           
    0.011890  2a 2b -> 18a 14b                                          
    0.055585  2a 2b -> 15a 5b                                           
   -0.010205  2a 2b -> 8a 8b                                            
    0.063726  2a 2b -> 15a 8b                                           
    0.022614  2a 2b -> 15a 15b                                          
   -0.027755  2a 2b -> 16a 4b                                           
   -0.031820  2a 2b -> 16a 9b                                           
   -0.011292  2a 2b -> 16a 16b                                          
   -0.027830  2a 2b -> 17a 3b                                           
   -0.031906  2a 2b -> 17a 7b                                           
   -0.011322  2a 2b -> 17a 17b                                          
   -0.052618  5a 2b -> 6a 5b                                            
    0.052493  5a 2b -> 12a 5b                                           
   -0.050016  5a 2b -> 14a 5b                                           
   -0.037042  5a 2b -> 18a 5b                                           
   -0.038197  5a 2b -> 6a 8b                                            
    0.057897  5a 2b -> 12a 8b                                           
   -0.055166  5a 2b -> 14a 8b                                           
   -0.049018  5a 2b -> 18a 8b                                           
    0.010983  5a 2b -> 20a 8b                                           
    0.019940  5a 2b -> 12a 15b                                          
   -0.018998  5a 2b -> 14a 15b                                          
   -0.021526  5a 2b -> 18a 15b                                          
    0.027482  5a 2b -> 8a 6b                                            
   -0.019846  5a 2b -> 15a 6b                                           
   -0.017498  5a 2b -> 15a 12b                                          
    0.017706  5a 2b -> 8a 14b                                           
    0.033772  5a 2b -> 15a 14b                                          
   -0.012823  5a 2b -> 8a 18b                                           
    0.011201  5a 2b -> 15a 18b                                          
    0.012647  5a 2b -> 16a 10b                                          
   -0.011844  5a 2b -> 16a 21b                                          
   -0.057389  5a 2b -> 10a 4b                                           
   -0.049388  5a 2b -> 10a 9b                                           
    0.012669  5a 2b -> 17a 11b                                          
   -0.011863  5a 2b -> 17a 23b                                          
   -0.057428  5a 2b -> 11a 3b                                           
   -0.049417  5a 2b -> 11a 7b                                           
    0.026273  4a 2b -> 6a 4b                                            
    0.038497  4a 2b -> 12a 4b                                           
   -0.046605  4a 2b -> 14a 4b                                           
    0.018496  4a 2b -> 18a 4b                                           
    0.019072  4a 2b -> 6a 9b                                            
    0.041095  4a 2b -> 12a 9b                                           
   -0.051072  4a 2b -> 14a 9b                                           
    0.024476  4a 2b -> 18a 9b                                           
    0.015432  4a 2b -> 12a 16b                                          
   -0.017900  4a 2b -> 14a 16b                                          
    0.010748  4a 2b -> 18a 16b                                          
   -0.018326  4a 2b -> 15a 10b                                          
    0.016545  4a 2b -> 15a 21b                                          
   -0.013722  4a 2b -> 9a 6b                                            
   -0.018000  4a 2b -> 16a 12b                                          
    0.021257  4a 2b -> 9a 14b                                           
    0.022441  4a 2b -> 16a 14b                                          
    0.050177  4a 2b -> 10a 5b                                           
    0.040730  4a 2b -> 10a 8b                                           
    0.026345  3a 2b -> 6a 3b                                            
    0.048449  3a 2b -> 12a 3b                                           
   -0.036190  3a 2b -> 14a 3b                                           
    0.018546  3a 2b -> 18a 3b                                           
    0.019124  3a 2b -> 6a 7b                                            
    0.053042  3a 2b -> 12a 7b                                           
   -0.038569  3a 2b -> 14a 7b                                           
    0.024542  3a 2b -> 18a 7b                                           
    0.018638  3a 2b -> 12a 17b                                          
   -0.014545  3a 2b -> 14a 17b                                          
    0.010777  3a 2b -> 18a 17b                                          
   -0.018332  3a 2b -> 15a 11b                                          
    0.016552  3a 2b -> 15a 23b                                          
   -0.013759  3a 2b -> 7a 6b                                            
   -0.012161  3a 2b -> 7a 12b                                           
    0.019618  3a 2b -> 7a 14b                                           
    0.027672  3a 2b -> 17a 14b                                          
    0.050235  3a 2b -> 11a 5b                                           
    0.040783  3a 2b -> 11a 8b                                           
    0.013855  2a 5a -> 6a 8a                                            
   -0.012773  2a 5a -> 6a 15a                                           
   -0.010644  2a 5a -> 15a 18a                                          
   -0.010506  2a 5a -> 15a 20a                                          
    0.064500  4a 5a -> 8a 9a                                            
    0.029266  4a 5a -> 6a 10a                                           
    0.012946  4a 5a -> 10a 14a                                          
    0.023599  4a 5a -> 9a 15a                                           
    0.049009  4a 5a -> 8a 16a                                           
    0.015118  4a 5a -> 10a 18a                                          
   -0.013185  4a 5a -> 6a 21a                                           
    0.012598  4a 5a -> 18a 21a                                          
   -0.064325  3a 5a -> 7a 8a                                            
    0.029292  3a 5a -> 6a 11a                                           
   -0.013248  3a 5a -> 11a 12a                                          
    0.023666  3a 5a -> 7a 15a                                           
    0.049008  3a 5a -> 8a 17a                                           
    0.015132  3a 5a -> 11a 18a                                          
   -0.013197  3a 5a -> 6a 23a                                           
    0.012610  3a 5a -> 18a 23a                                          
    0.128825  3a 4a -> 7a 9a                                            
   -0.020056  3a 4a -> 12a 13a                                          
    0.021019  3a 4a -> 13a 14a                                          
    0.025409  3a 4a -> 7a 16a                                           
   -0.025343  3a 4a -> 9a 17a                                           
    0.015678  3a 4a -> 16a 17a                                          
    0.012674  2a 4a 2b -> 7a 9a 7b                                      
   -0.012673  2a 3a 2b -> 7a 9a 9b                                      
   -0.018835  3a 4a 2b -> 7a 9a 6b                                      
    0.016241  3a 4a 2b -> 7a 9a 18b                                     
   -0.011477  2a 3a 4a -> 6a 7a 9a                                      
    0.012905  2a 3a 4a -> 7a 9a 18a                                     
    0.024493  3a 4a 5a -> 7a 9a 15a                                     
    0.012230  3a 4a 5a -> 7a 8a 16a                                     
    0.012263  3a 4a 5a -> 8a 9a 17a                                     
 
 ************************ 2018-07-07 22:04:10 *************************
                      Normal termination of mrcc.
 **********************************************************************
--executable dmrcc finished with status     0 in   115697.19 seconds (walltime).
  The final electronic energy is       -53.446554155056397 a.u. 
  This computation required                       115699.68 seconds (walltime).
--- SharcNET Job Epilogue ---
Job completed successfully.
               jobid: 1552152
               resid: 3029751
         exit status: 0
      allocated time: 115701
           user time: 2645450
         system time: 473346
peak rss=23329574912; peak vsz=23329574912 (bytes)
atime=115701; utime=2645450; stime=473346; exit=0
