 --invoking executable--
/home/nike/cfour_v2.00beta/bin/xjoda


   *************************************************************************
         <<<     CCCCCC     CCCCCC   |||     CCCCCC     CCCCCC   >>>
       <<<      CCC        CCC       |||    CCC        CCC         >>>
      <<<      CCC        CCC        |||   CCC        CCC            >>>
    <<<        CCC        CCC        |||   CCC        CCC              >>>
      <<<      CCC        CCC        |||   CCC        CCC            >>>
       <<<      CCC        CCC       |||    CCC        CCC         >>>
         <<<     CCCCCC     CCCCCC   |||     CCCCCC     CCCCCC   >>>
   *************************************************************************

     ****************************************************************
     * CFOUR Coupled-Cluster techniques for Computational Chemistry *
     ****************************************************************
 

   Department of Chemistry                Institut fuer Physikalische Chemie
   University of Texas at Austin          Universitaet Mainz
   Austin, TX  78712, USA                 D-55099 Mainz, Germany
 
                       Version 2.00beta
 
                     wob141                                            
                     Fri Jul  6 01:02:43 EDT 2018                      
                     integer*8 version is running
 
********************************************************************************
*                          Input from ZMAT file                                *
********************************************************************************
TITLE                                                                           
N                                                                               
                                                                                
*ACES2(CALC=CCSD                                                                
FROZEN_CORE=ON                                                                  
#DROPMO=1                                                                       
INPUT_MRCC=OFF                                                                  
CC_PROG=MRCC                                                                    
XFORM_TOL=18                                                                    
SAVE_INTS=ON                                                                    
SCF_EXPORDER=6                                                                  
SCF_EXPSTART=5                                                                  
#SCF_DAMPING=1000                                                               
SCF_EXTRAPOLATION=ON                                                            
SCF_CONV=10                                                                     
SCF_MAXCYC=9999                                                                 
CC_CONV=10                                                                      
CC_MAXCYC=999                                                                   
T3_EXTRAPOL=ON                                                                  
REFERENCE=ROHF                                                                  
CHARGE=+0                                                                       
MULT=4                                                                          
ABCDTYPE=STANDARD                                                               
OCCUPATION=2-1-1-0-1-0-0-0/2-0-0-0-0-0-0-0                                      
MEM=8                                                                           
MEM_UNIT=GB                                                                     
BASIS=SPECIAL)                                                                  
                                                                                
N:aVDZ-EMSL                                                                     
                                                                                
********************************************************************************
  @GTFLGS-W, Keyword #DROPMO not known and is ignored.
  @GTFLGS-W, Keyword #SCF_DAMPING not known and is ignored.
    -------------------------------------------------------------------
                    CFOUR Control Parameters 
    -------------------------------------------------------------------
        External           Internal           Value            Units
          Name               Name
    -------------------------------------------------------------------
       ABCDTYPE             IABCDT         STANDARD     [  0]   ***   
       ANHARMONIC           IANHAR         OFF          [  0]   ***   
       ANH_ALGORIT          IANALG         STANDARD     [  0]   ***   
       ANH_DERIVAT          IANDER         SECOND       [  1]   ***   
       ANH_STEPSIZ          ICUBST             50000          x 10-6  
       ANH_SYMMETR          IANHSM         ABELIAN      [  0]   ***   
       AO_LADDERS           IAOLAD         SINGLEPASS   [  1]   ***   
       BASIS                IBASIS         SPECIAL      [  0]   ***   
       BREIT                IBREIT         OFF          [  0]   ***   
       BRUCK_CONV           IBRTOL          10D-  4             ***   
       BRUECKNER            IBRKNR             OFF      [  0]   ***   
       BUFFERSIZE           IBUFFS            600               ***   
       CACHE_RECS           ICHREC             10               ***   
       CALCLEVEL            ICLLVL           CCSD       [ 10]   ***   
       CCORBOPT             ICCORB             OFF      [  0] x 0.01  
       CC_CONV              ICCCNV          10D- 10             ***   
       CC_EXPORDER          ICCEOR              5               ***   
       CC_EXTRAPOL          ICCEXT             DIIS     [  1]   ***   
       CC_MAXCYC            ICCCYC            999              cycles 
       CC_PROGRAM           ICCPRO         MRCC         [  2]   ***   
       CHARGE               ICHRGE              0               ***   
       CHOLESKY             ICHOLE         OFF          [  0]   ***   
       CIS_CONV             ICISTL              5               ***   
       COMM_SIZE            IPSIZE            ***               ***   
       CONSTANT             ICONST         OLD          [  1]   ***   
       CONTINUUM            ICONTU         NONE         [  0]   ***   
       CONTRACTION          ICNTYP          GENERAL     [  1]   ***   
       COORDINATES          ICOORD         INTERNAL     [  0]   ***   
       CPHF_CONVER          ICPHFT          10D- 16             ***   
       CPHF_MAXCYC          ICPHFC             64              cycles 
       CUBIC                ICUBIC         OFF          [  0]   ***   
       CURVILINEAR          ICURVY            OFF       [  0]   ***   
       DBOC                 IDBOC          OFF          [  0]   ***   
       DCT                  IDCT           OFF          [  0]   ***   
       DERIV_LEV            IDRLVL            ZERO      [  0]   ***   
       DIAG_MRCC            IEOMST          10D-  0             ***   
       DIFF_TYPE            IDIFTY         RELAXED      [  0]   ***   
       DIRECT               IDIRCT         OFF          [  0]   ***   
       DROPMO               IDRPMO      NONE         
       ECP                  IECP           OFF          [  0]   ***   
       EIGENVECTOR          IVEC                1               ***   
       EL_ANHARM            IELANH         OFF          [  0]   ***   
       EOMFOLLOW            IEOMSR         ENERGY       [  0]   ***   
       EOM_MRCC             IMRCCE         NEW          [  1]   ***   
       EOM_NONIT            EOMNON         OFF          [  0]   ***   
       EOM_NSING            IEOMSI          10D-  0             ***   
       EOM_NSTATES          IMRCCD         DAVIDSON     [  0]   ***   
       EOM_NTRIP            IEOMTR          10D-  0             ***   
       EOM_ORDER            IEXORD         ENERGY       [  0]   ***   
       ESTATE_CONV          IEXTOL          10D-  5             ***   
       ESTATE_DIAG          IEXDIG         ITERATIVE    [  0]   ***   
       ESTATE_LOCK          IESLOC         ON           [  1]   ***   
       ESTATE_MAXC          IEXMXC             20               ***   
       ESTATE_PROP          IEXPRP         OFF          [  0]   ***   
       EVAL_HESS            IRECAL              0            # of cyc.
       EXCITATION           IEXCIT              0               ***   
       EXCITE               IEXCIT         NONE         [  0]   ***   
       FCGRADNEW            IFCGNW         OFF          [  0]   ***   
       FC_FIELD             IFINFC              0             x 10-6  
       FD_CALTYPE           IFDCAL         GRADONLY     [  0]   ***   
       FD_PROJECT           IFDPRJ         OFF          [  1]   ***   
       FD_STEPSIZE          IDISFD              0            10-4 bohr
       FD_USEGROUP          IFDGRP         FULL         [  0]   ***   
       FILE_RECSIZ          IFLREC              4096           words  
       FINITE_PERT          IFIPER              0             x 10-6  
       FIXGEOM              IFIXGM         OFF          [  0]   ***   
       FOCK                 IFOCK          AO           [  1]   ***   
       FREQ_ALGORI          IVIALG         STANDARD     [  0]   ***   
       FROZEN_CORE          IFROCO         ON           [  1]   ***   
       FROZEN_VIRT          IFROVI         OFF          [  0]   ***   
       GAMMA_ABCD           IGABCD         STORE        [  0]   ***   
       GAMMA_ABCI           IGABCI         STORE        [  0]   ***   
       GENBAS_1             IGNBS1              0               ***   
       GENBAS_2             IGNBS2              0               ***   
       GENBAS_3             IGNBS3              0               ***   
       GENBAS_4             IGNBS4              0               ***   
       GEO_CONV             ICONTL              5              H/bohr 
       GEO_MAXCYC           IOPTCY             50               ***   
       GEO_MAXSTEP          IMXSTP            300            millibohr
       GEO_METHOD           INR            SINGLE_POINT [  5]   ***   
       GIAO                 IGIAO          OFF          [  1]   ***   
       GIMIC                IGIMIC         OFF          [  0]   ***   
       GRID                 IGRID          OFF          [  0]   ***   
       GRID_ALGO            IGALGO         SERIAL       [  0]   ***   
       GUESS                IGUESS            MOREAD    [  0]   ***   
       HBAR                 IHBAR              OFF      [  0]   ***   
       HESS_TYPE            IHESTP         SCF          [  0]   ***   
       HF2_FILE             IHF2Fl         USE          [  1]   ***   
       HFSTABILITY          ISTABL         OFF          [  0]   ***   
       INCORE               INCORE             OFF      [  0]   ***   
       INPUT_MRCC           IMRCC          OFF          [  0]   ***   
       INTEGRALS            INTTYP             VMOL     [  1]   ***   
       JODA_PRINT           IJPRNT              0               ***   
       LINDEP_TOL           ILINDP              8               ***   
       LINEQ_CONV           IZTACN          10D-  7           cycles  
       LINEQ_EXPOR          ILMAXD              5               ***   
       LINEQ_MAXCY          ILMAXC             50               ***   
       LINEQ_TYPE           ILTYPE         DIIS         [  1]   ***   
       LOCK_ORBOCC          ILOCOC             OFF      [  0]   ***   
       MEMORY_SIZE          IMEMSZ         *********           words  
       MEM_UNIT             IMEMU          GB           [  3]   ***   
       MRCC                 IMRCCC         OFF          [  0]   ***   
       MULTIPLICTY          IMULTP              4               ***   
       NEGEVAL              IDIE             ABORT      [  0]   ***   
       NEWNORM              INEWNO         OFF          [  0]   ***   
       NON-HF               INONHF              ON      [  1]   ***   
       NTOP_TAMP            ITOPT2             15               ***   
       NUC_MODEL            INUCMO         POINT        [  0]   ***   
       OCCUPATION           IOCCU  A   2,  1,  1,  0,  1,  0,  0,  0,
                                   B   2,  0,  0,  0,  0,  0,  0,  0,
       OPEN-SHELL           IOPEN          SPIN-ORBITAL [  0]   ***   
       ORBITALS             IORBTP         SEMICANONICAL[  1]   ***   
       PARALLEL             IPARAL         ON           [  1]   ***   
       PARA_INT             IPINTS         ON           [  1]   ***   
       PARA_PRINT           IPPRIN              0               ***   
       PERT_ORB             IPTORB         STANDARD     [  0]   ***   
       POINTS               IGRDFD              0               ***   
       PRINT                IPRNT               0               ***   
       PROPS                IPROPS             OFF      [  0]   ***   
       PROP_INTEGR          IINTYP         INTERNAL     [  0]   ***   
       PSI                  IPSI           OFF          [  0]   ***   
       QUARTIC              IQUART         OFF          [  0]   ***   
       RAMAN_INT            IRAMIN         OFF          [  0]   ***   
       RAMAN_ORB            IRAMRE         UNRELAXED    [  0]   ***   
       RDO                  IRDOFM             OFF      [  0]   ***   
       REFERENCE            IREFNC             ROHF     [  2]   ***   
       RELATIVIST           IRELAT         OFF          [  0]   ***   
       RELAX_DENS           IRDENS             OFF      [  0]   ***   
       RESET_FLAGS          IRESET             OFF      [  0]   ***   
       RESTART_CC           ICCRES         OFF          [  0]   ***   
       ROT_EVEC             ROTVEC              0               ***   
       SAVE_INTS            ISVINT              ON      [  1]   ***   
       SCALE_ON             ISTCRT              0               ***   
       SCF_CONV             ISCFCV          10D- 10             ***   
       SCF_DAMPING          IDAMP               0             x 10-3  
       SCF_EXPORDE          IRPPOR              6               ***   
       SCF_EXPSTAR          IRPPLS              5               ***   
       SCF_EXTRAPO          IRPP                ON      [  1]   ***   
       SCF_MAXCYC           ISCFCY            ***              cycles 
       SCF_NOSTOP           ISCFST         OFF          [  0]   ***   
       SCF_PRINT            ISCFPR              0               ***   
       SD_FIELD             IFINSD              0             x 10-6  
       SEQUENCE             ISEQUE         OFF          [  0]   ***   
       SOPERT               IPERSO         OFF          [  0]   ***   
       SPHERICAL            IDFGHI             ON       [  1]   ***   
       SPINORBIT            ISOCAL         OFF          [  0]   ***   
       SPINROTATIO          ISRCON         OFF          [  0]   ***   
       SPIN_FLIP            ISPFLP         OFF          [  0]   ***   
       SPIN_ORBIT           ISPORB         OFF          [  0]   ***   
       SPIN_SCAL            ISCSMP         OFF          [  0]   ***   
       SUBGROUP             ISUBGP         DEFAULT      [  0]   ***   
       SUBGRPAXIS           ISBXYZ         X            [  0]   ***   
       SYMMETRY             ISYM             ON         [  0]   ***   
       SYM_CHECK            ISYMCK         OVERRIDE     [  1]   ***   
       T3_EXTRAPOL          IT3EXT         ON           [  1]   ***   
       TAMP_SUM             IEVERY              5               ***   
       TESTSUITE            ITESTS         OFF          [  0]   ***   
       THERMOCH             ITHERM         OFF          [  0]   ***   
       TOL_CHOLESK          ITOLCH          10D-  4             ***   
       TRANGRAD             IRESRM         OFF          [  0]   ***   
       TRANS_INV            ITRAIN         USE          [  0]   ***   
       TREAT_PERT           ITREAT         SIMULTANEOUS [  0]   ***   
       UIJ_THRESHO          IUIJTH              1               ***   
       UNITS                IUNITS         ANGSTROM     [  0]   ***   
       UNOS                 IUNOS          OFF          [  0]   ***   
       UPDATE_HESS          IHUPDT         ON           [  1]   ***   
       VIBPHASE             ISETPH         STANDARD     [  0]   ***   
       VIBRATION            IVIB              NO        [  0]   ***   
       VIB_ALGORIT          IGEALG         STANDARD     [  0]   ***   
       VNATORB              IVNORB         OFF          [  0]   ***   
       VTRAN                IVTRAN         FULL/PARTIAL [  0]   ***   
       XFIELD               IXEFLD              0             x 10-6  
       XFORM_TOL            IXFTOL          10D- 18             ***   
       YFIELD               IYEFLD              0             x 10-6  
       ZFIELD               IZEFLD              0             x 10-6  
    -------------------------------------------------------------------
   1 entries found in Z-matrix 
   Job Title : TITLE                                                                           
  1  N          7    14.00307
 factor:   60.1997200000000     
   Rotational constants (in cm-1): 

   Rotational constants (in MHz): 

********************************************************************************
   The full molecular point group is I h .
   The largest Abelian subgroup of the full molecular point group is D2h .
   The computational point group is D2h .
********************************************************************************
  @GTFLGS-W, Keyword #DROPMO not known and is ignored.
  @GTFLGS-W, Keyword #SCF_DAMPING not known and is ignored.
  There is   1 frozen-core orbital.
  There is   1 frozen-core orbital.
  There are   23 basis functions.
 @GEOPT-W, Archive file not created for single-point calculation.
  @CHECKOUT-I, Total execution time (CPU/WALL):        0.11/       4.87 seconds.
--executable xjoda finished with status     0 in        6.49 seconds (walltime).
 --invoking executable--
/home/nike/cfour_v2.00beta/bin/xvmol
 Serial version of molecule started
********************************************************************************
                    Input from MOL file
********************************************************************************
INTGRL        1    0    1    0    0    0    0    0    0                         
         *** CFOUR Program System (Release V0.1) ***                            
TITLE                                                                           
    1    3 X  Y   Z   0.10E-08              0    0                              
   9999.00      3.00                                                            
          7.00000000    1    3    1    1    1                                   
N #1   0.000000000000000   0.000000000000000   0.000000000000000                
   10    4                                                                      
   9046.00000000000       7.000000000000000E-004 -1.530000000000000E-004        
  0.000000000000000E+000  0.000000000000000E+000                                
   1357.00000000000       5.389000000000000E-003 -1.208000000000000E-003        
  0.000000000000000E+000  0.000000000000000E+000                                
   309.300000000000       2.740600000000000E-002 -5.992000000000000E-003        
  0.000000000000000E+000  0.000000000000000E+000                                
   87.7300000000000       0.103207000000000      -2.454400000000000E-002        
  0.000000000000000E+000  0.000000000000000E+000                                
   28.5600000000000       0.278723000000000      -6.745900000000001E-002        
  0.000000000000000E+000  0.000000000000000E+000                                
   10.2100000000000       0.448540000000000      -0.158078000000000             
  0.000000000000000E+000  0.000000000000000E+000                                
   3.83800000000000       0.278238000000000      -0.121831000000000             
  0.000000000000000E+000  0.000000000000000E+000                                
  0.746600000000000       1.544000000000000E-002  0.549003000000000             
  0.000000000000000E+000  0.000000000000000E+000                                
  0.224800000000000      -2.864000000000000E-003  0.578815000000000             
   1.00000000000000       0.000000000000000E+000                                
  6.124000000000000E-002  0.000000000000000E+000  0.000000000000000E+000        
  0.000000000000000E+000   1.00000000000000                                     
    5    3                                                                      
   13.5500000000000       3.991900000000000E-002  0.000000000000000E+000        
  0.000000000000000E+000                                                        
   2.91700000000000       0.217169000000000       0.000000000000000E+000        
  0.000000000000000E+000                                                        
  0.797300000000000       0.510319000000000       0.000000000000000E+000        
  0.000000000000000E+000                                                        
  0.218500000000000       0.462214000000000        1.00000000000000             
  0.000000000000000E+000                                                        
  5.611000000000000E-002  0.000000000000000E+000  0.000000000000000E+000        
   1.00000000000000                                                             
    2    2                                                                      
  0.817000000000000        1.00000000000000       0.000000000000000E+000        
  0.230000000000000       0.000000000000000E+000   1.00000000000000             
FINISH                                                                          
 
********************************************************************************
 One- and two-electron integrals over symmetry-adapted AOs are calculated.

  Spherical harmonics are used.
  
  Integrals less than  0.10E-13 are neglected.

  Nuclear repulsion energy :    0.0000000000 a.u.
  required memory for a1 array                5020257  words 
  required memory for a2 array                2070308  words 
 @GETMEM-I,  Allocated      69 MB of main memory.
  @MOLECU-I, One electron integrals (CPU/WALL):        0.01/       0.04 seconds.
  @TWOEL-I,        379 integrals of symmetry type  I I I I
  @TWOEL-I,       1506 integrals of symmetry type  I J I J
  @TWOEL-I,       1161 integrals of symmetry type  I I J J
  @TWOEL-I,       1760 integrals of symmetry type  I J K L
  @TWOEL-I, Total number of 2-e integrals       4806.
  @MOLECU-I, Two electron integrals (CPU/WALL):        0.01/       0.20 seconds.
  @CHECKOUT-I, Total execution time (CPU/WALL):        0.02/       0.93 seconds.
--executable xvmol finished with status     0 in        1.46 seconds (walltime).
 --invoking executable--
/home/nike/cfour_v2.00beta/bin/xvmol2ja
 @GETMEM-I,  Allocated    7629 MB of main memory.
  @CHECKOUT-I, Total execution time (CPU/WALL):        0.00/       0.04 seconds.
--executable xvmol2ja finished with status     0 in        0.21 seconds (walltime).
 --invoking executable--
/home/nike/cfour_v2.00beta/bin/xvscf
  There are   23 functions in the AO basis.

  There are 8 irreducible representations.

       Irrep        # of functions
         1                  8
         2                  3
         3                  3
         4                  2
         5                  3
         6                  2
         7                  2
         8                  0


  Parameters for SCF calculation: 
        SCF reference function: ROHF  
  Maximum number of iterations: 9999
     Full symmetry point group: I h 
     Computational point group: D2h 
        Initial density matrix: MOREAD                 
     SCF convergence tolerance: 10**(-10)
  DIIS convergence acceleration:  ON
          Latest start for DIIS:   5
                     DIIS order:   6

     Alpha population by irrep:   2    1    1    0    1    0    0    0
      Beta population by irrep:   2    0    0    0    0    0    0    0


  Memory information:      62860 words required.
  Fock matrices are constructed from AO integral file.
 @GETMEM-I,  Allocated       0 MB of main memory.
  Initialization and symmetry analysis required      0.002 seconds.

 total no. of electrons in initial guess :  0.000000000000000E+000
 total no. of electrons in initial guess :  0.000000000000000E+000
  --------------------------------------------------------------------
  Iteration         Total Energy            Largest Density Difference
  --------------------------------------------------------------------
       0             0.000000000000000              0.0000000000D+00
   current occupation vector 
     2  1  1  0  1  0  0  0
     2  0  0  0  0  0  0  0
       1           -52.642721023154110              0.5080043740D+01
   current occupation vector 
     2  1  1  0  1  0  0  0
     2  0  0  0  0  0  0  0
       2           -52.337558410007745              0.4187643151D+01
   current occupation vector 
     2  1  1  0  1  0  0  0
     2  0  0  0  0  0  0  0
       3           -54.104041784547221              0.1569815444D+01
   current occupation vector 
     2  1  1  0  1  0  0  0
     2  0  0  0  0  0  0  0
       4           -53.962664761922937              0.1261043923D+01
   current occupation vector 
     2  1  1  0  1  0  0  0
     2  0  0  0  0  0  0  0
       5           -54.355792610760624              0.6433736023D+00
   current occupation vector 
     2  1  1  0  1  0  0  0
     2  0  0  0  0  0  0  0
       6           -54.384246678637091              0.3348472477D+00
   current occupation vector 
     2  1  1  0  1  0  0  0
     2  0  0  0  0  0  0  0
       7           -54.389635958228219              0.9068409795D-01
   current occupation vector 
     2  1  1  0  1  0  0  0
     2  0  0  0  0  0  0  0
       8           -54.389846209047576              0.2775272143D-01
   current occupation vector 
     2  1  1  0  1  0  0  0
     2  0  0  0  0  0  0  0
       9           -54.389860580447717              0.7465389329D-02
   current occupation vector 
     2  1  1  0  1  0  0  0
     2  0  0  0  0  0  0  0
      10           -54.389870727736316              0.2944719123D-02
   current occupation vector 
     2  1  1  0  1  0  0  0
     2  0  0  0  0  0  0  0
      11           -54.389870729081956              0.3300310970D-04
   current occupation vector 
     2  1  1  0  1  0  0  0
     2  0  0  0  0  0  0  0
      12           -54.389870729086290              0.1933688683D-05
   current occupation vector 
     2  1  1  0  1  0  0  0
     2  0  0  0  0  0  0  0
      13           -54.389870729086304              0.7265673461D-07
   current occupation vector 
     2  1  1  0  1  0  0  0
     2  0  0  0  0  0  0  0
      14           -54.389870729086269              0.3824897066D-09
   current occupation vector 
     2  1  1  0  1  0  0  0
     2  0  0  0  0  0  0  0

  SCF has converged.

 Density matrix saved to file den.dat
 total alpha spin electron number:   5.00000000000000     
 total  beta spin electron number:   2.00000000000000     
     E(ROHF)=       -54.389870729086276              0.4667127795D-11

  Eigenvector printing suppressed.


       The average multiplicity is    4.0000000
  The expectation value of S**2 is    3.7500000

 @PUTMOS-I, Writing converged MOs to NEWMOS. 
 @PUTMOS-I, Symmetry   1 Full Blocks  2 Partial Blocksize   0
 @PUTMOS-I, Symmetry   2 Full Blocks  0 Partial Blocksize   3
 @PUTMOS-I, Symmetry   3 Full Blocks  0 Partial Blocksize   3
 @PUTMOS-I, Symmetry   4 Full Blocks  0 Partial Blocksize   2
 @PUTMOS-I, Symmetry   5 Full Blocks  0 Partial Blocksize   3
 @PUTMOS-I, Symmetry   6 Full Blocks  0 Partial Blocksize   2
 @PUTMOS-I, Symmetry   7 Full Blocks  0 Partial Blocksize   2
 @PUTMOS-I, Symmetry   8 Full Blocks  0 Partial Blocksize   0
  @DMPJOB-I, Rotating orbitals to semicanonical basis.
             *** Eigenvalues correspond to new basis. ***



 
  ORBITAL EIGENVALUES (ALPHA)  (1H = 27.2113838 eV)

       MO #        E(hartree)               E(eV)           FULLSYM    COMPSYM
       ----   --------------------   --------------------   -------   ---------
    1     1         -15.6801791216        -426.6793724389      Ag        Ag (1)
    2     2          -1.1537218224         -31.3943673315      Ag        Ag (1)
    3     9          -0.5675554163         -15.4439682705     T1u       B2u (2)
    4    17          -0.5675554163         -15.4439682705     T1u       B1u (5)
    5    12          -0.5675554163         -15.4439682705     T1u       B3u (3)
  +++++++++++++++++++++++++++++++++++++++++++++++++++++++++++++++++++++++++++++
    6     3           0.1389665162           3.7814712115      Ag        Ag (1)
    7    10           0.1558689507           4.2414098429     T1u       B2u (2)
    8    13           0.1558689507           4.2414098429     T1u       B3u (3)
    9    18           0.1558689507           4.2414098429     T1u       B1u (5)
   10    20           0.6504409094          17.6993972371      Hg       B3g (6)
   11     4           0.6504409094          17.6993972371      Hg        Ag (1)
   12    15           0.6504409094          17.6993972371      Hg       B1g (4)
   13    22           0.6504409094          17.6993972371      Hg       B2g (7)
   14     5           0.6504409094          17.6993972371      Hg        Ag (1)
   15    14           1.0316507231          28.0726437953     T1u       B2u (3)
   16    11           1.0316507231          28.0726437953     T1u       B3u (2)
   17    19           1.0316507231          28.0726437953     T1u       B1u (5)
   18     6           1.2947416531          35.2317120707      Ag        Ag (1)
   19     7           2.3833918417          64.8553901972      Hg        Ag (1)
   20     8           2.3833918417          64.8553901972      Hg        Ag (1)
   21    16           2.3833918417          64.8553901972      Hg       B1g (4)
   22    23           2.3833918417          64.8553901972      Hg       B2g (7)
   23    21           2.3833918417          64.8553901972      Hg       B3g (6)


 
  ORBITAL EIGENVALUES ( BETA)  (1H = 27.2113838 eV)

       MO #        E(hartree)               E(eV)           FULLSYM    COMPSYM
       ----   --------------------   --------------------   -------   ---------
    1     1         -15.5946944057        -424.3532150218      Ag        Ag (1)
    2     2          -0.7433658656         -20.2280138860      Ag        Ag (1)
  +++++++++++++++++++++++++++++++++++++++++++++++++++++++++++++++++++++++++++++
    3    12           0.0833271396           2.2674467795     T1u       B3u (3)
    4    17           0.0833271396           2.2674467795     T1u       B1u (5)
    5     9           0.0833271396           2.2674467795     T1u       B2u (2)
    6     3           0.1620803392           4.4104303204      Ag        Ag (1)
    7    13           0.2620928900           7.1319102267     T1u       B3u (3)
    8    18           0.2620928900           7.1319102267     T1u       B1u (5)
    9    10           0.2620928900           7.1319102267     T1u       B2u (2)
   10    20           0.7167792252          19.5045546121      Hg       B3g (6)
   11    15           0.7167792252          19.5045546121      Hg       B1g (4)
   12     4           0.7167792252          19.5045546121      Hg        Ag (1)
   13    22           0.7167792252          19.5045546121      Hg       B2g (7)
   14     5           0.7167792252          19.5045546121      Hg        Ag (1)
   15    19           1.2169760365          33.1156020274     T1u       B1u (5)
   16    14           1.2169760365          33.1156020274     T1u       B3u (3)
   17    11           1.2169760365          33.1156020274     T1u       B2u (2)
   18     6           1.4023885915          38.1609342284      Ag        Ag (1)
   19    16           2.5584212518          69.6181826550      Hg        Ag (4)
   20     7           2.5584212518          69.6181826550      Hg       B1g (1)
   21    23           2.5584212518          69.6181826550      Hg       B2g (7)
   22     8           2.5584212518          69.6181826550      Hg        Ag (1)
   23    21           2.5584212518          69.6181826550      Hg       B3g (6)


  VSCF finished.

  @CHECKOUT-I, Total execution time (CPU/WALL):        0.02/       0.42 seconds.
--executable xvscf finished with status     0 in        0.61 seconds (walltime).
 --invoking executable--
/home/nike/cfour_v2.00beta/bin/xvtran
 @GETMEM-I,  Allocated    7629 MB of main memory.
  Full UHF integral transformation
  The following   1 alpha MOs will be dropped.
    1
  There are  22 active alpha molecular orbitals.
  The following   1 beta MOs will be dropped.
    1
  There are  22 active beta molecular orbitals.
  Transformation of IIII integrals :
  2 passes through the AO integral file were required.
         379 AO integrals were read.
         487 MO integrals (Spin case AAAA) were written to HF2AA.
         487 MO integrals (Spin case BBBB) were written to HF2BB.
         919 MO integrals (Spin case AABB) were written to HF2AB.
  Transformation of IIJJ integrals :
  2 passes through the AO integral file were required.
        1161 AO integrals were read.
        1053 MO integrals (Spin case AAAA) were written to HF2AA.
        1053 MO integrals (Spin case BBBB) were written to HF2BB.
        2106 MO integrals (Spin case AABB) were written to HF2AB.
  Transformation of IJIJ integrals :
  2 passes through the AO integral file were required.
        1506 AO integrals were read.
        1362 MO integrals (Spin case AAAA) were written to HF2AA.
        1362 MO integrals (Spin case BBBB) were written to HF2BB.
        2526 MO integrals (Spin case AABB) were written to HF2AB.
  Transformation of IJKL integrals :
  2 passes through the AO integral file were required.
        1760 AO integrals were read.
        1626 MO integrals (Spin case AAAA) were written to HF2AA.
        1626 MO integrals (Spin case BBBB) were written to HF2BB.
        3252 MO integrals (Spin case AABB) were written to HF2AB.
  Summary of active molecular orbitals: 
------------------------------------------------------------------------
                         * Spin case alpha *
 
  Index      Eigenvalue    Symmetry    Index      Eigenvalue    Symmetry
------------------------------------------------------------------------
     1        -1.1537218        1        12         1.0316507        2
     2        -0.5675554        2        13         0.1558690        3
     3        -0.5675554        3        14         1.0316507        3
     4        -0.5675554        5        15         0.6504409        4
     5         0.1389665        1        16         2.3833918        4
     6         0.6504409        1        17         0.1558690        5
     7         0.6504409        1        18         1.0316507        5
     8         1.2947417        1        19         0.6504409        6
     9         2.3833918        1        20         2.3833918        6
    10         2.3833918        1        21         0.6504409        7
    11         0.1558690        2        22         2.3833918        7
------------------------------------------------------------------------
------------------------------------------------------------------------
                         * Spin case beta *
 
  Index      Eigenvalue    Symmetry    Index      Eigenvalue    Symmetry
------------------------------------------------------------------------
     1        -0.7433659        1        12         0.2620929        3
     2         0.1620803        1        13         1.2169760        3
     3         0.7167792        1        14         0.7167792        4
     4         0.7167792        1        15         2.5584213        4
     5         1.4023886        1        16         0.0833271        5
     6         2.5584213        1        17         0.2620929        5
     7         2.5584213        1        18         1.2169760        5
     8         0.0833271        2        19         0.7167792        6
     9         0.2620929        2        20         2.5584213        6
    10         1.2169760        2        21         0.7167792        7
    11         0.0833271        3        22         2.5584213        7
------------------------------------------------------------------------
  @CHECKOUT-I, Total execution time (CPU/WALL):        0.03/       2.21 seconds.
--executable xvtran finished with status     0 in        2.38 seconds (walltime).
 --invoking executable--
/home/nike/cfour_v2.00beta/bin/xintprc
 @GETMEM-I,  Allocated    7629 MB of main memory.
  Processing integrals for CCSD calculation.
  @GMOIAA-I, Processing MO integrals for spin case AA.
  @GMOIAA-I, Generation of integral list completed.
                      TYPE                NUMBER
                      ----               --------
                      PPPP                  2118
                      PPPH                  1620
                      PPHH                   396
                      PHPH                   276
                      PHHH                   102
                      HHHH                    16

                     TOTAL                  4528
  @GMOIAA-I, Processing MO integrals for spin case BB.
  @GMOIAA-I, Generation of integral list completed.
                      TYPE                NUMBER
                      ----               --------
                      PPPP                  3717
                      PPPH                   708
                      PPHH                    48
                      PHPH                    48
                      PHHH                     6
                      HHHH                     1

                     TOTAL                  4528
  @GMOIAB-I, Processing MO integrals for spin case AB.
                      TYPE                NUMBER
                      ----               --------
                      PPPP                  5388
                      PPPH1H                2214
                      PPPH2H                 534
                      PPHH                   216
                      PHPH1P                  39
                      PHPH2P                 357
                      PHHH1P                  12
                      PHHH2P                  39
                      HHHH                     4

                     TOTAL                  8803
            ----------------------------------------------
                     Projected spin multiplicities: 
            ----------------------------------------------
             <0|S^2|0>                  =    3.7500000000.
             <0|S^2 T2|0>               =    0.0000000000.
             Projected <0|S^2 exp(T)|0> =    3.7500000000.
             Approximate spin mult.     =    4.0000000000.
            ----------------------------------------------
   Largest T2 amplitudes for spin case AA:
   i   j   a   b             i   j   a   b             i   j   a   b
-----------------------------------------------------------------------------
[  3   2  14  12]-0.02482 [  4   3  18  14]-0.02482 [  4   2  18  12]-0.02482
[  3   2  15   7]-0.01531 [  3   2  16   9]-0.01462 [  2   1  12   8]-0.01373
[  4   1  18   8]-0.01373 [  3   1  14   8]-0.01373 [  4   2  19   6] 0.01340
[  4   3  21   6] 0.01312 [  4   3  22  10] 0.01281 [  4   2  17  12]-0.01274
[  3   2  13  12]-0.01274 [  4   3  17  14]-0.01274 [  4   3  18  13]-0.01274
-----------------------------------------------------------------------------
   Norm of T2AA vector (      120 symmetry allowed elements):  0.0819102084.
-----------------------------------------------------------------------------
   Largest T2 amplitudes for spin case AB:
       _       _                 _       _                 _       _
   i   j   a   b             i   j   a   b             i   j   a   b
-----------------------------------------------------------------------------
[  2   1  12   5]-0.02405 [  3   1  14   5]-0.02405 [  4   1  18   5]-0.02405
[  4   1  10  17]-0.01992 [  4   1   6  17] 0.01914 [  1   1   8   5]-0.01764
[  4   1   6  16] 0.01748 [  2   1   9   9]-0.01745 [  2   1  16  12]-0.01726
[  4   1  22  12]-0.01726 [  2   1  20  17]-0.01726 [  3   1  22  17]-0.01726
[  3   1  16   9]-0.01726 [  4   1  20   9]-0.01726 [  3   1   9  12] 0.01706
-----------------------------------------------------------------------------
   Norm of T2AB vector (      216 symmetry allowed elements):  0.1272204357.
-----------------------------------------------------------------------------
  @CHECKOUT-I, Total execution time (CPU/WALL):        0.02/       0.77 seconds.
--executable xintprc finished with status     0 in        0.94 seconds (walltime).
 --invoking executable--
/home/nike/cfour_v2.00beta/bin/xint
 @GETMEM-I,  Allocated    7629 MB of main memory.
  @CHECKOUT-I, Total execution time (CPU/WALL):        0.03/       0.21 seconds.
--executable xint finished with status     0 in        0.43 seconds (walltime).
 --invoking executable--
/home/nike/MRCC/dmrcc
 **********************************************************************
                          MRCC program system
 **********************************************************************
 
                              Written by
    Mihaly Kallay, Zoltan Rolik, Jozsef Csontos, Istvan Ladjanszki,
       Lorant Szegedy, Bence Ladoczki, Gyula Samu, Klara Petrov,
        Mate Farkas, Peter Nagy, David Mester, and Bence Hegely
 
        Department of Physical Chemistry and Materials Science
            Budapest University of Technology and Economics
                  Budapest P.O.Box 91, H-1521 Hungary
 
                              www.mrcc.hu

 ************************ 2018-07-06 01:02:53 *************************
 Executing minp...

 Reading input from MINP...
 
 Input file:
 
# N 2Z
basis=aVDZ-EMSL
iface=cfour
uncontract=off
calc=CC(5)
mem=8GB
core=1
itol=18
scftol=13
cctol=7
ccmaxit=999
scfmaxit=9999
scfiguess=ao
scftype=ROHF
rohftype=semicanonical
rest=2
charge=+0
refdet=serialno
1
2,3,4

symm=8
mult=4
#occ=3,0,0,0,0,1,0,0/1,0,0,0,0,1,0,0
geom
N

#Li 1 R

#R=3.065

#unit=angstroms

tprint=0.01
verbosity=3
nstate=4

 
 
 Checking keyword combinations...
 
 Keywords:
 
 active=none
 agrid=ld0006-ld0590
 basis=avdz-emsl
 basopt=off
 bpcompo=0.985
 bpcompv=0.98
 bpdfo=0.985
 bpocc=0.985
 bppdo=0.985
 bppdv=0.98
 bpedo=0.985
 bpedv=0.98
 calc=cc(5)
 ccmaxit=999
 ccprog=mrcc
 cctol=7
 charge=+0
 cialg=disk
 ciguess=off
 cmpgrp=auto
 core=1
 corembed=off
 dboc=off
 dendec=cholesky
 dens=0
 dfalg=invsqrt
 dfbasis_cor=none
 dfbasis_scf=none
 dfintran=ovirt
 dft=off
 diag=david
 domrad=10.d0
 drpaalg=fit
 ecp=auto
 edisp=off
 embed=off
 epert=none
 eps=0.975
 excrad=0.d0
 excrad_fin=0.000000000D+00
 freq=off
 gauss=spher
 geom=zmat
 gopt=off
 ghost=none
 gtol=7
 grtol=10
 hamilton=dc
 iface=cfour
 intalg=auto
 itol=18
 lcorthr=loose
 lccrest=off
 lmp2dens=on
 lnoepso=3e-5
 lnoepsv=1e-6
 localcc=off
 locintrf=disk
 maxact=off
 maxex=0
 bfbasis=none
 mem=8gb
 molden=on
 mulmet=0
 mult=4
 nacto=0
 nactv=0
 naf_cor=off
 naf_scf=off
 nafalg=albe
 naftyp=
 nchol=auto
 ndeps=1e-3
 nstate=4
 nsing=0
 ntrip=0
 occ=
 optalg=
 optmaxit=50
 optetol=1e-6
 optgtol=1e-4
 optstol=1e-3
 orblocc=off
 orbloco=off
 orblocv=off
 osveps=1e-3
 ovirt=off
 ovosnorb=80.0
 ptfreq=0.0
 popul=off
 pressure=100000
 qmmm=off
 refdet=serialno
 rest=2
 rgrid=log3
 rohftype=semicanonical
 scspe=1.d0
 scsps=1.2d0
 scspt=0.33333333333333
 scfalg=auto
 scfdamp=off
 scfdiis=on
 scfdiis_end=9999
 scfdiis_start=1
 scfdiis_step=1
 scfdtol=17
 scfext=10
 scfiguess=ao
 scflshift=off
 scfmaxit=9999
 scftype=rohf
 scftol=13
 spairtol=1e-4
 symm=8
 talg=occ
 temp=298.15
 test=off
 tprint=0.01
 uncontract=off
 unit=angs
 verbosity=3
 wpairtol=0.100000000E-05

 ************************ 2018-07-06 01:02:54 *************************
 Executing goldstone...

 Generation of CC equations in terms of H and T...
 Generation of antisymmetrized Goldstone diagrams...
 Number of diagrams in T^1 equations:    15
 Number of diagrams in T^2 equations:    38
 Number of diagrams in T^3 equations:    54
 Number of diagrams in T^4 equations:    80
 Number of diagrams in T^5 equations:    99
 Translation of diagrams to factorized equations...
 Optimizing intermediate calculation...
 Optimizing right-hand EOMCC calculation...
 Number of floating-point operations per iteration step:   5.5097E+08
 Probable CPU time per iteration step (hours):      0.01
 Required memory (Mbytes):      19.5
 Number of intermediates:                                 348
 Number of intermediates to be stored:                    133
 Length of intermediate file (Mbytes):      28.4

 ************************ 2018-07-06 01:03:01 *************************
 Executing xmrcc...

 **********************************************************************
 CC(                     5 ) calculation 
 
 
 Allocation of 100.0 Mbytes of memory...
 Number of spinorbitals:                    44
 Number of alpha electrons:                        4
 Number of beta electrons:                         1
 z-component of spin:  1.5
 Spatial symmetry:                      8
 Convergence criterion:  1.0E-07
 Construction of occupation graphs...
 Number of                     0 -fold excitations:                      1
 Number of                     1 -fold excitations:                     18
 Number of                     2 -fold excitations:                    336
 Number of                     3 -fold excitations:                   2831
 Number of                     4 -fold excitations:                   9060
 Number of                     5 -fold excitations:                   8220
 Total number of configurations:                  20466
 Calculation of coupling coefficients...
 Length of intermediate file (Mbytes):      10.8
 
 ======================================================================
 
 ======================================================================
 
 ======================================================================
 
 ======================================================================
 
 Memory requirements /Mbyte/: 
               Minimal        Optimal
 Real*8:          3.5950         3.5970
 Integer:         5.3420
 Total:           8.9371         8.9390
 

 ************************ 2018-07-06 01:03:03 *************************
 Executing goldstone...

 Generation of CC equations in terms of H and T...
 Generation of antisymmetrized Goldstone diagrams...
 Number of diagrams in T^1 equations:     8
 Translation of diagrams to factorized equations...
 Optimizing intermediate calculation...
 Optimizing right-hand EOMCC calculation...
 Number of floating-point operations per iteration step:   4.1332E+02
 Probable CPU time per iteration step (hours):      0.00
 Required memory (Mbytes):      19.5
 Number of intermediates:                                  19
 Number of intermediates to be stored:                      9
 Length of intermediate file (Mbytes):       0.0

 ************************ 2018-07-06 01:03:04 *************************
 Executing xmrcc...

 **********************************************************************
 CC(                     1 ) calculation 
 
 
 Allocation of 100.0 Mbytes of memory...
 Number of spinorbitals:                    44
 Number of alpha electrons:                        4
 Number of beta electrons:                         1
 z-component of spin:  1.5
 Spatial symmetry:                      8
 Convergence criterion:  1.0E-07
 Construction of occupation graphs...
 Number of                     0 -fold excitations:                      1
 Number of                     1 -fold excitations:                     18
 Total number of configurations:                     19
 Calculation of coupling coefficients...
 Length of intermediate file (Mbytes):       0.1
 
 ======================================================================
 
 ======================================================================
 
 ======================================================================
 
 ======================================================================
 
 Memory requirements /Mbyte/: 
               Minimal        Optimal
 Real*8:          0.0886         1.7985
 Integer:         3.2885
 Total:           3.3771         5.0870
 

 ************************ 2018-07-06 01:03:04 *************************
 Executing mrcc...

 **********************************************************************
 LR-CCS calculation                                                     
 
 
 OpenMP parallel version is running.
 Number of CPUs:   2
 Allocation of    1.8 Mbytes of memory...
 Number of spinorbitals:  44
 Number of alpha electrons:  4
 Number of beta  electrons:  1
 z-component of spin:  1.5
 Spatial symmetry: 8
 Convergence criterion:  1.0E-07
 Construction of occupation graphs...
 Number of 0-fold excitations: 1
 Number of 1-fold excitations: 18
 Total number of determinants: 19
 Calculation of coupling coefficients...
 Initial cluster amplitudes are generated.
 Length of intermediate file (Mbytes):       0.1
 Reading integral list from unit 55...
 Sorting integrals...
 Sorting integrals...
 Sorting integrals...
 Sorting integrals...
 Energy of reference determinant [au]:     -54.389870729086
 Calculation of diagonal elements of Hamiltonian...
 Calculation of MP denominators...
 
 Starting CC iteration...
 ======================================================================
 Norm of residual vector:     0.05865400
 CPU time [min]:     0.011                   Wall time [min]:     0.013
 
 Iteration  1  CC energy:   -54.39188991  Energy decrease:   0.00201918
 ======================================================================
 Norm of residual vector:     0.01824680
 CPU time [min]:     0.012                   Wall time [min]:     0.014
 
 Iteration  2  CC energy:   -54.39279272  Energy decrease:   0.00090281
 ======================================================================
 Norm of residual vector:     0.00180444
 CPU time [min]:     0.012                   Wall time [min]:     0.014
 
 Iteration  3  CC energy:   -54.39284257  Energy decrease:   0.00004985
 ======================================================================
 Norm of residual vector:     0.00013558
 CPU time [min]:     0.012                   Wall time [min]:     0.014
 
 Iteration  4  CC energy:   -54.39284205  Energy decrease:   0.00000052
 ======================================================================
 Norm of residual vector:     0.00000819
 CPU time [min]:     0.012                   Wall time [min]:     0.014
 
 Iteration  5  CC energy:   -54.39284197  Energy decrease:   0.00000008
 ======================================================================
 Norm of residual vector:     0.00000082
 CPU time [min]:     0.012                   Wall time [min]:     0.014
 
 Iteration  6  CC energy:   -54.39284197  Energy decrease:   0.00000001
 ======================================================================
 Norm of residual vector:     0.00000016
 CPU time [min]:     0.012                   Wall time [min]:     0.014
 
 Iteration  7  CC energy:   -54.39284197  Energy decrease:   1.1051E-09
 ======================================================================
 Norm of residual vector:     0.00000001
 CPU time [min]:     0.012                   Wall time [min]:     0.014
 
 Iteration  8  CC energy:   -54.39284198  Energy decrease:   9.3664E-11
 ======================================================================
 
 Iteration has converged in  8 steps.
 
 Final results:
 Total CCS energy [au]:              -54.392841975039
 Spin multiplicity:                     2
 
 
 
 Dominant cluster amplitudes
 Printing threshold:  1.00E-02
 
    1.000000  Reference determinant                                     
    0.038911  1b -> 5b                                                  
   -0.024293  1b -> 17b                                                 
   -0.025152  1a -> 5a                                                  
    0.019485  1a -> 17a                                                 
 
 Starting right-hand LR-CC iteration for root                      2 ...
 ======================================================================
 Norm of residual vector:     0.08401739      Convergence:   1.00000000
 CPU time [min]:     0.013                   Wall time [min]:     0.015
 
 Iteration  1  CI energy:   -53.88954591  Energy decrease:   0.50329606
 ======================================================================
 Norm of residual vector:     0.08891180      Convergence:   0.56707189
 CPU time [min]:     0.015                   Wall time [min]:     0.017
 
 Iteration  2  CI energy:   -53.89859649  Energy decrease:   0.00905057
 ======================================================================
 Norm of residual vector:     0.00374496      Convergence:   0.13882492
 CPU time [min]:     0.015                   Wall time [min]:     0.017
 
 Iteration  3  CI energy:   -53.91062779  Energy decrease:   0.01203130
 ======================================================================
 Norm of residual vector:     0.00051038      Convergence:   0.00487191
 CPU time [min]:     0.015                   Wall time [min]:     0.017
 
 Iteration  4  CI energy:   -53.91064233  Energy decrease:   0.00001454
 ======================================================================
 Norm of residual vector:     0.00018242      Convergence:   0.00077413
 CPU time [min]:     0.015                   Wall time [min]:     0.017
 
 Iteration  5  CI energy:   -53.91064272  Energy decrease:   0.00000040
 ======================================================================
 Norm of residual vector:     0.00004326      Convergence:   0.00039831
 CPU time [min]:     0.015                   Wall time [min]:     0.017
 
 Iteration  6  CI energy:   -53.91064277  Energy decrease:   0.00000005
 ======================================================================
 Norm of residual vector:     0.00000204      Convergence:   0.00002484
 CPU time [min]:     0.015                   Wall time [min]:     0.017
 
 Iteration  7  CI energy:   -53.91064277  Energy decrease:   3.7066E-09
 ======================================================================
 Norm of residual vector:     0.00000006      Convergence:   0.00000142
 CPU time [min]:     0.015                   Wall time [min]:     0.017
 
 Iteration  8  CI energy:   -53.91064277  Energy decrease:   1.6573E-10
 ======================================================================
 
 Iteration has converged in  8 steps.
 
 Final results:
 Total LR-CCS energy [au]:           -53.910642770702
 Excitation energy [eV]:          13.1213
 Excitation energy [cm^-1]:   105830.50
 Absorption wavelength [nm]:      94.49
 Spin multiplicity:                     2
 
 
 
 Dominant CI coefficients
 Printing threshold:  1.00E-02
 
   -0.015084  1a -> 13a                                                 
   -0.010140  1a -> 22a                                                 
   -0.404617  2a -> 6a                                                  
   -0.053586  2a -> 14a                                                 
    0.809234  4a -> 7a                                                  
    0.107173  4a -> 15a                                                 
   -0.404617  3a -> 8a                                                  
   -0.053586  3a -> 16a                                                 
 
 Starting right-hand LR-CC iteration for root                      3 ...
 ======================================================================
 Norm of residual vector:     0.08401739      Convergence:   1.00000000
 CPU time [min]:     0.015                   Wall time [min]:     0.017
 
 Iteration  1  CI energy:   -53.88954591  Energy decrease:   0.50329606
 ======================================================================
 Norm of residual vector:     0.08891180      Convergence:   0.56707189
 CPU time [min]:     0.015                   Wall time [min]:     0.017
 
 Iteration  2  CI energy:   -53.89859649  Energy decrease:   0.00905057
 ======================================================================
 Norm of residual vector:     0.00374496      Convergence:   0.13882492
 CPU time [min]:     0.015                   Wall time [min]:     0.017
 
 Iteration  3  CI energy:   -53.91062779  Energy decrease:   0.01203130
 ======================================================================
 Norm of residual vector:     0.00051038      Convergence:   0.00487191
 CPU time [min]:     0.015                   Wall time [min]:     0.017
 
 Iteration  4  CI energy:   -53.91064233  Energy decrease:   0.00001454
 ======================================================================
 Norm of residual vector:     0.00018242      Convergence:   0.00077413
 CPU time [min]:     0.016                   Wall time [min]:     0.017
 
 Iteration  5  CI energy:   -53.91064272  Energy decrease:   0.00000040
 ======================================================================
 Norm of residual vector:     0.00004326      Convergence:   0.00039831
 CPU time [min]:     0.016                   Wall time [min]:     0.017
 
 Iteration  6  CI energy:   -53.91064277  Energy decrease:   0.00000005
 ======================================================================
 Norm of residual vector:     0.00000204      Convergence:   0.00002484
 CPU time [min]:     0.016                   Wall time [min]:     0.017
 
 Iteration  7  CI energy:   -53.91064277  Energy decrease:   3.7066E-09
 ======================================================================
 Norm of residual vector:     0.00000006      Convergence:   0.00000142
 CPU time [min]:     0.016                   Wall time [min]:     0.017
 
 Iteration  8  CI energy:   -53.91064277  Energy decrease:   1.6574E-10
 ======================================================================
 
 Iteration has converged in  8 steps.
 
 Final results:
 Total LR-CCS energy [au]:           -53.910642770702
 Excitation energy [eV]:          13.1213
 Excitation energy [cm^-1]:   105830.50
 Absorption wavelength [nm]:      94.49
 Spin multiplicity:                     2
 
 
 
 Dominant CI coefficients
 Printing threshold:  1.00E-02
 
    0.017234  1a -> 11a                                                 
    0.011844  1a -> 19a                                                 
   -0.404617  2a -> 6a                                                  
   -0.053586  2a -> 14a                                                 
   -0.404617  4a -> 7a                                                  
   -0.053586  4a -> 15a                                                 
    0.809234  3a -> 8a                                                  
    0.107173  3a -> 16a                                                 
 
 Starting right-hand LR-CC iteration for root                      4 ...
 ======================================================================
 Norm of residual vector:     0.08401739      Convergence:   1.00000000
 CPU time [min]:     0.016                   Wall time [min]:     0.017
 
 Iteration  1  CI energy:   -53.88954591  Energy decrease:   0.50329606
 ======================================================================
 Norm of residual vector:     0.08891180      Convergence:   0.56707189
 CPU time [min]:     0.016                   Wall time [min]:     0.017
 
 Iteration  2  CI energy:   -53.89859649  Energy decrease:   0.00905057
 ======================================================================
 Norm of residual vector:     0.00374496      Convergence:   0.13882492
 CPU time [min]:     0.016                   Wall time [min]:     0.017
 
 Iteration  3  CI energy:   -53.91062779  Energy decrease:   0.01203130
 ======================================================================
 Norm of residual vector:     0.00051038      Convergence:   0.00487191
 CPU time [min]:     0.016                   Wall time [min]:     0.017
 
 Iteration  4  CI energy:   -53.91064233  Energy decrease:   0.00001454
 ======================================================================
 Norm of residual vector:     0.00018242      Convergence:   0.00077413
 CPU time [min]:     0.016                   Wall time [min]:     0.017
 
 Iteration  5  CI energy:   -53.91064272  Energy decrease:   0.00000040
 ======================================================================
 Norm of residual vector:     0.00004326      Convergence:   0.00039831
 CPU time [min]:     0.016                   Wall time [min]:     0.017
 
 Iteration  6  CI energy:   -53.91064277  Energy decrease:   0.00000005
 ======================================================================
 Norm of residual vector:     0.00000204      Convergence:   0.00002484
 CPU time [min]:     0.016                   Wall time [min]:     0.017
 
 Iteration  7  CI energy:   -53.91064277  Energy decrease:   3.7066E-09
 ======================================================================
 Norm of residual vector:     0.00000006      Convergence:   0.00000142
 CPU time [min]:     0.016                   Wall time [min]:     0.017
 
 Iteration  8  CI energy:   -53.91064277  Energy decrease:   1.6575E-10
 ======================================================================
 
 Iteration has converged in  8 steps.
 
 Final results:
 Total LR-CCS energy [au]:           -53.910642770702
 Excitation energy [eV]:          13.1213
 Excitation energy [cm^-1]:   105830.50
 Absorption wavelength [nm]:      94.49
 Spin multiplicity:                     2
 
 Dominant CI coefficients
 Printing threshold:  1.00E-02
 
    0.014766  1a -> 13a                                                 
    0.010375  1a -> 22a                                                 
    0.809234  2a -> 6a                                                  
    0.107173  2a -> 14a                                                 
   -0.404617  4a -> 7a                                                  
   -0.053586  4a -> 15a                                                 
   -0.404617  3a -> 8a                                                  
   -0.053586  3a -> 16a                                                 

 ************************ 2018-07-06 01:03:06 *************************
 Executing goldstone...

 Generation of CC equations in terms of H and T...
 Generation of antisymmetrized Goldstone diagrams...
 Number of diagrams in T^1 equations:    14
 Number of diagrams in T^2 equations:    31
 Translation of diagrams to factorized equations...
 Optimizing intermediate calculation...
 Optimizing right-hand EOMCC calculation...
 Number of floating-point operations per iteration step:   2.5012E+05
 Probable CPU time per iteration step (hours):      0.00
 Required memory (Mbytes):      19.5
 Number of intermediates:                                  84
 Number of intermediates to be stored:                     36
 Length of intermediate file (Mbytes):       0.5

 ************************ 2018-07-06 01:03:07 *************************
 Executing xmrcc...

 **********************************************************************
 CC(                     2 ) calculation 
 
 
 Allocation of 100.0 Mbytes of memory...
 Number of spinorbitals:                    44
 Number of alpha electrons:                        4
 Number of beta electrons:                         1
 z-component of spin:  1.5
 Spatial symmetry:                      8
 Convergence criterion:  1.0E-07
 Construction of occupation graphs...
 Number of                     0 -fold excitations:                      1
 Number of                     1 -fold excitations:                     18
 Number of                     2 -fold excitations:                    336
 Total number of configurations:                    355
 Calculation of coupling coefficients...
 Length of intermediate file (Mbytes):       0.7
 
 ======================================================================
 
 ======================================================================
 
 ======================================================================
 
 ======================================================================
 
 Memory requirements /Mbyte/: 
               Minimal        Optimal
 Real*8:          0.2055         1.8304
 Integer:         3.4156
 Total:           3.6211         5.2460
 

 ************************ 2018-07-06 01:03:07 *************************
 Executing mrcc...

 **********************************************************************
 LR-CCSD calculation                                                    
 
 
 OpenMP parallel version is running.
 Number of CPUs:   2
 Allocation of    1.8 Mbytes of memory...
 Number of spinorbitals:  44
 Number of alpha electrons:  4
 Number of beta  electrons:  1
 z-component of spin:  1.5
 Spatial symmetry: 8
 Convergence criterion:  1.0E-07
 Construction of occupation graphs...
 Number of 0-fold excitations: 1
 Number of 1-fold excitations: 18
 Number of 2-fold excitations: 336
 Total number of determinants: 355
 Calculation of coupling coefficients...
 Initial cluster amplitudes are read from unit 16.
 Length of intermediate file (Mbytes):       0.7
 Reading integral list from unit 55...
 Sorting integrals...
 Sorting integrals...
 Sorting integrals...
 Sorting integrals...
 Energy of reference determinant [au]:     -54.389870729086
 Calculation of diagonal elements of Hamiltonian...
 Calculation of MP denominators...
 
 Starting CC iteration...
 ======================================================================
 Norm of residual vector:     0.52445412
 CPU time [min]:     0.007                   Wall time [min]:     0.005
 
 Iteration  1  CC energy:   -54.46828225  Energy decrease:   0.07532449
 ======================================================================
 Norm of residual vector:     0.10158489
 CPU time [min]:     0.008                   Wall time [min]:     0.006
 
 Iteration  2  CC energy:   -54.48432147  Energy decrease:   0.01603922
 ======================================================================
 Norm of residual vector:     0.02056638
 CPU time [min]:     0.009                   Wall time [min]:     0.006
 
 Iteration  3  CC energy:   -54.48540626  Energy decrease:   0.00108478
 ======================================================================
 Norm of residual vector:     0.00575017
 CPU time [min]:     0.009                   Wall time [min]:     0.006
 
 Iteration  4  CC energy:   -54.48562814  Energy decrease:   0.00022188
 ======================================================================
 Norm of residual vector:     0.00183803
 CPU time [min]:     0.010                   Wall time [min]:     0.007
 
 Iteration  5  CC energy:   -54.48560656  Energy decrease:   0.00002158
 ======================================================================
 Norm of residual vector:     0.00054992
 CPU time [min]:     0.011                   Wall time [min]:     0.007
 
 Iteration  6  CC energy:   -54.48559477  Energy decrease:   0.00001179
 ======================================================================
 Norm of residual vector:     0.00012212
 CPU time [min]:     0.013                   Wall time [min]:     0.009
 
 Iteration  7  CC energy:   -54.48560402  Energy decrease:   0.00000925
 ======================================================================
 Norm of residual vector:     0.00002758
 CPU time [min]:     0.014                   Wall time [min]:     0.009
 
 Iteration  8  CC energy:   -54.48560266  Energy decrease:   0.00000136
 ======================================================================
 Norm of residual vector:     0.00000565
 CPU time [min]:     0.015                   Wall time [min]:     0.010
 
 Iteration  9  CC energy:   -54.48560279  Energy decrease:   0.00000012
 ======================================================================
 Norm of residual vector:     0.00000106
 CPU time [min]:     0.016                   Wall time [min]:     0.011
 
 Iteration 10  CC energy:   -54.48560280  Energy decrease:   0.00000001
 ======================================================================
 Norm of residual vector:     0.00000021
 CPU time [min]:     0.017                   Wall time [min]:     0.011
 
 Iteration 11  CC energy:   -54.48560278  Energy decrease:   0.00000001
 ======================================================================
 Norm of residual vector:     0.00000003
 CPU time [min]:     0.018                   Wall time [min]:     0.012
 
 Iteration 12  CC energy:   -54.48560279  Energy decrease:   1.7067E-09
 ======================================================================
 
 Iteration has converged in 12 steps.
 
 Final results:
 Total CCSD energy [au]:             -54.485602786383
 Spin multiplicity:                     2
 
 
 
 Dominant cluster amplitudes
 Printing threshold:  1.00E-02
 
    1.000000  Reference determinant                                     
    0.037403  1b -> 5b                                                  
   -0.018756  1b -> 17b                                                 
   -0.017121  1a -> 5a                                                  
    0.018475  1a -> 17a                                                 
    0.012298  1a 1b -> 17a 5b                                           
    0.011948  1a 1b -> 5a 17b                                           
   -0.020193  1a 1b -> 17a 17b                                          
   -0.012474  1a 1b -> 6a 6b                                            
   -0.010923  1a 1b -> 14a 6b                                           
   -0.012682  1a 1b -> 14a 14b                                          
   -0.012474  1a 1b -> 7a 7b                                            
   -0.010923  1a 1b -> 15a 7b                                           
   -0.012682  1a 1b -> 15a 15b                                          
   -0.010121  1a 1b -> 18a 18b                                          
   -0.012474  1a 1b -> 8a 8b                                            
   -0.010923  1a 1b -> 16a 8b                                           
   -0.012682  1a 1b -> 16a 16b                                          
   -0.010121  1a 1b -> 21a 21b                                          
   -0.010121  1a 1b -> 20a 20b                                          
   -0.012609  2a 1b -> 11a 2b                                           
    0.020936  2a 1b -> 13a 2b                                           
   -0.016748  2a 1b -> 22a 2b                                           
    0.013842  2a 1b -> 5a 6b                                            
   -0.014149  2a 1b -> 11a 6b                                           
    0.023493  2a 1b -> 13a 6b                                           
    0.011881  2a 1b -> 19a 6b                                           
   -0.021558  2a 1b -> 22a 6b                                           
    0.011637  2a 1b -> 5a 14b                                           
   -0.013521  2a 1b -> 17a 14b                                          
    0.011503  2a 1b -> 6a 5b                                            
    0.017905  2a 1b -> 14a 5b                                           
   -0.011781  2a 1b -> 6a 17b                                           
   -0.025815  2a 1b -> 14a 17b                                          
    0.021166  2a 1b -> 10a 4b                                           
   -0.016561  2a 1b -> 18a 4b                                           
    0.023751  2a 1b -> 10a 7b                                           
   -0.021317  2a 1b -> 18a 7b                                           
    0.021166  2a 1b -> 9a 3b                                            
   -0.016561  2a 1b -> 21a 3b                                           
    0.023751  2a 1b -> 9a 8b                                            
   -0.021317  2a 1b -> 21a 8b                                           
   -0.011827  4a 1b -> 11a 4b                                           
   -0.021388  4a 1b -> 13a 4b                                           
    0.016368  4a 1b -> 22a 4b                                           
    0.013842  4a 1b -> 5a 7b                                            
   -0.013271  4a 1b -> 11a 7b                                           
   -0.024000  4a 1b -> 13a 7b                                           
    0.012729  4a 1b -> 19a 7b                                           
    0.021068  4a 1b -> 22a 7b                                           
    0.011637  4a 1b -> 5a 15b                                           
   -0.013521  4a 1b -> 17a 15b                                          
    0.011503  4a 1b -> 7a 5b                                            
    0.017905  4a 1b -> 15a 5b                                           
   -0.011781  4a 1b -> 7a 17b                                           
   -0.025815  4a 1b -> 15a 17b                                          
    0.021166  4a 1b -> 10a 2b                                           
   -0.016561  4a 1b -> 18a 2b                                           
    0.023751  4a 1b -> 10a 6b                                           
   -0.021317  4a 1b -> 18a 6b                                           
    0.021166  4a 1b -> 12a 3b                                           
   -0.016561  4a 1b -> 20a 3b                                           
    0.023751  4a 1b -> 12a 8b                                           
   -0.021317  4a 1b -> 20a 8b                                           
    0.024436  3a 1b -> 11a 3b                                           
   -0.019119  3a 1b -> 19a 3b                                           
    0.013842  3a 1b -> 5a 8b                                            
    0.027420  3a 1b -> 11a 8b                                           
   -0.024610  3a 1b -> 19a 8b                                           
    0.011637  3a 1b -> 5a 16b                                           
   -0.013521  3a 1b -> 17a 16b                                          
   -0.011147  3a 1b -> 19a 16b                                          
    0.011503  3a 1b -> 8a 5b                                            
    0.017905  3a 1b -> 16a 5b                                           
   -0.011781  3a 1b -> 8a 17b                                           
   -0.025815  3a 1b -> 16a 17b                                          
    0.021166  3a 1b -> 9a 2b                                            
   -0.016561  3a 1b -> 21a 2b                                           
    0.023751  3a 1b -> 9a 6b                                            
   -0.021317  3a 1b -> 21a 6b                                           
    0.021166  3a 1b -> 12a 4b                                           
   -0.016561  3a 1b -> 20a 4b                                           
    0.023751  3a 1b -> 12a 7b                                           
   -0.021317  3a 1b -> 20a 7b                                           
    0.010156  1a 2a -> 5a 14a                                           
    0.016179  1a 2a -> 14a 17a                                          
    0.010156  1a 4a -> 5a 15a                                           
    0.016179  1a 4a -> 15a 17a                                          
   -0.010980  2a 4a -> 6a 7a                                            
    0.015441  2a 4a -> 10a 13a                                          
    0.015789  2a 4a -> 7a 14a                                           
   -0.015789  2a 4a -> 6a 15a                                           
   -0.029263  2a 4a -> 14a 15a                                          
    0.010769  2a 4a -> 13a 18a                                          
   -0.010768  2a 4a -> 10a 22a                                          
    0.014840  2a 4a -> 18a 22a                                          
    0.010156  1a 3a -> 5a 16a                                           
    0.016179  1a 3a -> 16a 17a                                          
   -0.010980  2a 3a -> 6a 8a                                            
   -0.013515  2a 3a -> 9a 11a                                           
    0.015789  2a 3a -> 8a 14a                                           
   -0.015789  2a 3a -> 6a 16a                                           
   -0.029263  2a 3a -> 14a 16a                                          
    0.012704  2a 3a -> 19a 21a                                          
    0.010980  3a 4a -> 7a 8a                                            
   -0.013229  3a 4a -> 11a 12a                                          
   -0.015789  3a 4a -> 8a 15a                                           
    0.015789  3a 4a -> 7a 16a                                           
    0.029263  3a 4a -> 15a 16a                                          
   -0.012999  3a 4a -> 19a 20a                                          
 
 Starting right-hand LR-CC iteration for root                      2 ...
 ======================================================================
 Norm of residual vector:     0.31915645      Convergence:   1.00000000
 CPU time [min]:     0.018                   Wall time [min]:     0.012
 
 Iteration  1  CI energy:   -53.96529458  Energy decrease:   0.52030820
 ======================================================================
 Norm of residual vector:     0.06849849      Convergence:   0.20906131
 CPU time [min]:     0.019                   Wall time [min]:     0.013
 
 Iteration  2  CI energy:   -54.03330614  Energy decrease:   0.06801156
 ======================================================================
 Norm of residual vector:     0.01576512      Convergence:   0.04948244
 CPU time [min]:     0.020                   Wall time [min]:     0.013
 
 Iteration  3  CI energy:   -54.03682949  Energy decrease:   0.00352335
 ======================================================================
 Norm of residual vector:     0.00315248      Convergence:   0.01143265
 CPU time [min]:     0.020                   Wall time [min]:     0.013
 
 Iteration  4  CI energy:   -54.03691795  Energy decrease:   0.00008846
 ======================================================================
 Norm of residual vector:     0.00058155      Convergence:   0.00181684
 CPU time [min]:     0.021                   Wall time [min]:     0.014
 
 Iteration  5  CI energy:   -54.03689489  Energy decrease:   0.00002307
 ======================================================================
 Norm of residual vector:     0.00020405      Convergence:   0.00050132
 CPU time [min]:     0.022                   Wall time [min]:     0.014
 
 Iteration  6  CI energy:   -54.03689269  Energy decrease:   0.00000219
 ======================================================================
 Norm of residual vector:     0.00011231      Convergence:   0.00027632
 CPU time [min]:     0.022                   Wall time [min]:     0.015
 
 Iteration  7  CI energy:   -54.03689260  Energy decrease:   0.00000010
 ======================================================================
 Norm of residual vector:     0.00005165      Convergence:   0.00012402
 CPU time [min]:     0.023                   Wall time [min]:     0.015
 
 Iteration  8  CI energy:   -54.03689266  Energy decrease:   0.00000006
 ======================================================================
 Norm of residual vector:     0.00002182      Convergence:   0.00005744
 CPU time [min]:     0.024                   Wall time [min]:     0.015
 
 Iteration  9  CI energy:   -54.03689260  Energy decrease:   0.00000005
[...]
 Excitation energy [cm^-1]:    98777.90
 Absorption wavelength [nm]:     101.24
 Spin multiplicity:                     2
 
 
 
 Dominant CI coefficients
 Printing threshold:  1.00E-02
 
   -0.010956  1a -> 13a                                                 
   -0.393224  2a -> 6a                                                  
   -0.045446  2a -> 14a                                                 
    0.786463  4a -> 7a                                                  
    0.090895  4a -> 15a                                                 
   -0.393239  3a -> 8a                                                  
   -0.045448  3a -> 16a                                                 
   -0.030435  1a 1b -> 6a 2b                                            
   -0.038138  1a 1b -> 6a 6b                                            
   -0.017296  1a 1b -> 6a 14b                                           
    0.060872  1a 1b -> 7a 4b                                            
    0.076277  1a 1b -> 7a 7b                                            
    0.034592  1a 1b -> 7a 15b                                           
   -0.030436  1a 1b -> 8a 3b                                            
   -0.038139  1a 1b -> 8a 8b                                            
   -0.017296  1a 1b -> 8a 16b                                           
   -0.017120  2a 1b -> 5a 2b                                            
   -0.016889  2a 1b -> 5a 6b                                            
    0.029149  2a 1b -> 6a 5b                                            
   -0.020827  2a 1b -> 6a 17b                                           
   -0.014961  2a 1b -> 7a 10b                                           
    0.016928  2a 1b -> 7a 18b                                           
    0.034240  4a 1b -> 5a 4b                                            
    0.033778  4a 1b -> 5a 7b                                            
   -0.058300  4a 1b -> 7a 5b                                            
    0.011524  4a 1b -> 7a 13b                                           
    0.041654  4a 1b -> 7a 17b                                           
   -0.016622  4a 1b -> 7a 19b                                           
   -0.017121  3a 1b -> 5a 3b                                            
   -0.016889  3a 1b -> 5a 8b                                            
   -0.014961  3a 1b -> 7a 12b                                           
    0.016928  3a 1b -> 7a 20b                                           
    0.029150  3a 1b -> 8a 5b                                            
   -0.020827  3a 1b -> 8a 17b                                           
    0.018023  1a 2a -> 5a 6a                                            
    0.017978  1a 2a -> 6a 17a                                           
   -0.036047  1a 4a -> 5a 7a                                            
    0.011135  1a 4a -> 7a 13a                                           
   -0.035956  1a 4a -> 7a 17a                                           
    0.032608  2a 4a -> 6a 7a                                            
    0.012420  2a 4a -> 5a 10a                                           
   -0.069285  2a 4a -> 7a 14a                                           
   -0.034846  2a 4a -> 6a 15a                                           
    0.018024  1a 3a -> 5a 8a                                            
    0.017979  1a 3a -> 8a 17a                                           
   -0.065215  2a 3a -> 6a 8a                                            
    0.034440  2a 3a -> 8a 14a                                           
   -0.034438  2a 3a -> 6a 16a                                           
   -0.032607  3a 4a -> 7a 8a                                            
    0.012420  3a 4a -> 5a 12a                                           
   -0.034847  3a 4a -> 8a 15a                                           
   -0.069285  3a 4a -> 7a 16a                                           
    0.010259  2a 3a 1b -> 6a 8a 5b                                      
   -0.010505  2a 3a 4a -> 6a 8a 15a                                     
 
 Starting right-hand LR-CC iteration for root                      3 ...
 ======================================================================
 Norm of residual vector:     0.00715801      Convergence:   1.00000000
 CPU time [min]:     0.959                   Wall time [min]:     0.535
 
 Iteration  1  CI energy:   -54.03714612  Energy decrease:   0.45005825
 ======================================================================
 Norm of residual vector:     0.00119395      Convergence:   0.00129076
 CPU time [min]:     1.015                   Wall time [min]:     0.568
 
 Iteration  2  CI energy:   -54.03714962  Energy decrease:   0.00000350
 ======================================================================
 Norm of residual vector:     0.00027177      Convergence:   0.00026308
 CPU time [min]:     1.080                   Wall time [min]:     0.611
 
 Iteration  3  CI energy:   -54.03714663  Energy decrease:   0.00000299
 ======================================================================
 Norm of residual vector:     0.00008502      Convergence:   0.00009169
 CPU time [min]:     1.135                   Wall time [min]:     0.642
 
 Iteration  4  CI energy:   -54.03714116  Energy decrease:   0.00000547
 ======================================================================
 Norm of residual vector:     0.00003938      Convergence:   0.00004233
 CPU time [min]:     1.202                   Wall time [min]:     0.701
 
 Iteration  5  CI energy:   -54.03713984  Energy decrease:   0.00000132
 ======================================================================
 Norm of residual vector:     0.00001214      Convergence:   0.00001738
 CPU time [min]:     1.259                   Wall time [min]:     0.749
 
 Iteration  6  CI energy:   -54.03713928  Energy decrease:   0.00000056
 ======================================================================
 Norm of residual vector:     0.00000430      Convergence:   0.00000525
 CPU time [min]:     1.325                   Wall time [min]:     0.799
 
 Iteration  7  CI energy:   -54.03713921  Energy decrease:   0.00000007
 ======================================================================
 Norm of residual vector:     0.00000149      Convergence:   0.00000179
 CPU time [min]:     1.371                   Wall time [min]:     0.828
 
 Iteration  8  CI energy:   -54.03713916  Energy decrease:   0.00000005
 ======================================================================
 Norm of residual vector:     0.00000057      Convergence:   0.00000061
 CPU time [min]:     1.420                   Wall time [min]:     0.860
 
 Iteration  9  CI energy:   -54.03713916  Energy decrease:   2.7116E-09
 ======================================================================
 Norm of residual vector:     0.0000E+00      Convergence:   2.5378E-07
 CPU time [min]:     1.466                   Wall time [min]:     0.887
 
 Iteration 10  CI energy:   -54.03713916  Energy decrease:   2.6013E-09
 ======================================================================
 
 Iteration has converged in 10 steps.
 
 Final results:
 Total LR-CCSDTQP energy [au]:       -54.037139160774
 Excitation energy [eV]:          12.2469
 Excitation energy [cm^-1]:    98777.90
 Absorption wavelength [nm]:     101.24
 Spin multiplicity:                     2
 
 
 
 Dominant CI coefficients
 Printing threshold:  1.00E-02
 
    0.012518  1a -> 11a                                                 
   -0.393218  2a -> 6a                                                  
   -0.045446  2a -> 14a                                                 
   -0.393245  4a -> 7a                                                  
   -0.045449  4a -> 15a                                                 
    0.786463  3a -> 8a                                                  
    0.090895  3a -> 16a                                                 
   -0.030435  1a 1b -> 6a 2b                                            
   -0.038137  1a 1b -> 6a 6b                                            
   -0.017295  1a 1b -> 6a 14b                                           
   -0.030437  1a 1b -> 7a 4b                                            
   -0.038140  1a 1b -> 7a 7b                                            
   -0.017297  1a 1b -> 7a 15b                                           
    0.060872  1a 1b -> 8a 3b                                            
    0.076277  1a 1b -> 8a 8b                                            
    0.034592  1a 1b -> 8a 16b                                           
   -0.017120  2a 1b -> 5a 2b                                            
   -0.016888  2a 1b -> 5a 6b                                            
    0.029149  2a 1b -> 6a 5b                                            
   -0.020826  2a 1b -> 6a 17b                                           
   -0.014961  2a 1b -> 8a 9b                                            
    0.016928  2a 1b -> 8a 21b                                           
   -0.017121  4a 1b -> 5a 4b                                            
   -0.016890  4a 1b -> 5a 7b                                            
    0.029151  4a 1b -> 7a 5b                                            
   -0.020828  4a 1b -> 7a 17b                                           
   -0.014962  4a 1b -> 8a 12b                                           
    0.016928  4a 1b -> 8a 20b                                           
    0.034240  3a 1b -> 5a 3b                                            
    0.033778  3a 1b -> 5a 8b                                            
   -0.058300  3a 1b -> 8a 5b                                            
   -0.012892  3a 1b -> 8a 11b                                           
    0.041654  3a 1b -> 8a 17b                                           
    0.017176  3a 1b -> 8a 22b                                           
    0.018023  1a 2a -> 5a 6a                                            
    0.017978  1a 2a -> 6a 17a                                           
    0.018024  1a 4a -> 5a 7a                                            
    0.017979  1a 4a -> 7a 17a                                           
   -0.065215  2a 4a -> 6a 7a                                            
    0.034440  2a 4a -> 7a 14a                                           
   -0.034438  2a 4a -> 6a 15a                                           
   -0.036047  1a 3a -> 5a 8a                                            
   -0.012722  1a 3a -> 8a 11a                                           
   -0.035956  1a 3a -> 8a 17a                                           
    0.010578  1a 3a -> 8a 19a                                           
    0.032609  2a 3a -> 6a 8a                                            
    0.012420  2a 3a -> 5a 9a                                            
   -0.069285  2a 3a -> 8a 14a                                           
   -0.034845  2a 3a -> 6a 16a                                           
   -0.032607  3a 4a -> 7a 8a                                            
   -0.012420  3a 4a -> 5a 12a                                           
    0.069285  3a 4a -> 8a 15a                                           
    0.034848  3a 4a -> 7a 16a                                           
    0.010259  2a 4a 1b -> 6a 7a 5b                                      
    0.010505  2a 3a 4a -> 6a 7a 16a                                     
 
 Starting right-hand LR-CC iteration for root                      4 ...
 ======================================================================
 Norm of residual vector:     0.00715801      Convergence:   1.00000000
 CPU time [min]:     1.512                   Wall time [min]:     0.915
 
 Iteration  1  CI energy:   -54.03714612  Energy decrease:   0.45005825
 ======================================================================
 Norm of residual vector:     0.00119398      Convergence:   0.00129075
 CPU time [min]:     1.555                   Wall time [min]:     0.942
 
 Iteration  2  CI energy:   -54.03714962  Energy decrease:   0.00000350
 ======================================================================
 Norm of residual vector:     0.00027181      Convergence:   0.00026308
 CPU time [min]:     1.600                   Wall time [min]:     0.969
 
 Iteration  3  CI energy:   -54.03714663  Energy decrease:   0.00000299
 ======================================================================
 Norm of residual vector:     0.00008502      Convergence:   0.00009169
 CPU time [min]:     1.647                   Wall time [min]:     0.998
 
 Iteration  4  CI energy:   -54.03714116  Energy decrease:   0.00000547
 ======================================================================
 Norm of residual vector:     0.00003938      Convergence:   0.00004233
 CPU time [min]:     1.693                   Wall time [min]:     1.027
 
 Iteration  5  CI energy:   -54.03713984  Energy decrease:   0.00000132
 ======================================================================
 Norm of residual vector:     0.00001215      Convergence:   0.00001738
 CPU time [min]:     1.749                   Wall time [min]:     1.065
 
 Iteration  6  CI energy:   -54.03713928  Energy decrease:   0.00000056
 ======================================================================
 Norm of residual vector:     0.00000430      Convergence:   0.00000525
 CPU time [min]:     1.795                   Wall time [min]:     1.094
 
 Iteration  7  CI energy:   -54.03713921  Energy decrease:   0.00000007
 ======================================================================
 Norm of residual vector:     0.00000149      Convergence:   0.00000179
 CPU time [min]:     1.842                   Wall time [min]:     1.122
 
 Iteration  8  CI energy:   -54.03713916  Energy decrease:   0.00000005
 ======================================================================
 Norm of residual vector:     0.00000057      Convergence:   0.00000062
 CPU time [min]:     1.884                   Wall time [min]:     1.146
 
 Iteration  9  CI energy:   -54.03713916  Energy decrease:   2.7502E-09
 ======================================================================
 Norm of residual vector:     0.00000022      Convergence:   0.00000027
 CPU time [min]:     1.929                   Wall time [min]:     1.172
 
 Iteration 10  CI energy:   -54.03713916  Energy decrease:   2.5750E-09
 ======================================================================
 Norm of residual vector:     0.00000009      Convergence:   0.00000015
 CPU time [min]:     1.974                   Wall time [min]:     1.199
 
 Iteration 11  CI energy:   -54.03713916  Energy decrease:   4.1901E-11
 ======================================================================
 
 Iteration has converged in 11 steps.
 
 Final results:
 Total LR-CCSDTQP energy [au]:       -54.037139160705
 Excitation energy [eV]:          12.2469
 Excitation energy [cm^-1]:    98777.90
 Absorption wavelength [nm]:     101.24
 Spin multiplicity:                     2
 
 Dominant CI coefficients
 Printing threshold:  1.00E-02
 
    0.010725  1a -> 13a                                                 
    0.786463  2a -> 6a                                                  
    0.090895  2a -> 14a                                                 
   -0.393238  4a -> 7a                                                  
   -0.045448  4a -> 15a                                                 
   -0.393225  3a -> 8a                                                  
   -0.045447  3a -> 16a                                                 
    0.060872  1a 1b -> 6a 2b                                            
    0.076277  1a 1b -> 6a 6b                                            
    0.034592  1a 1b -> 6a 14b                                           
   -0.030436  1a 1b -> 7a 4b                                            
   -0.038139  1a 1b -> 7a 7b                                            
   -0.017296  1a 1b -> 7a 15b                                           
   -0.030435  1a 1b -> 8a 3b                                            
   -0.038138  1a 1b -> 8a 8b                                            
   -0.017296  1a 1b -> 8a 16b                                           
    0.034240  2a 1b -> 5a 2b                                            
    0.033778  2a 1b -> 5a 6b                                            
   -0.058300  2a 1b -> 6a 5b                                            
   -0.010806  2a 1b -> 6a 13b                                           
    0.041654  2a 1b -> 6a 17b                                           
    0.013128  2a 1b -> 6a 19b                                           
   -0.011613  2a 1b -> 6a 22b                                           
   -0.017121  4a 1b -> 5a 4b                                            
   -0.016889  4a 1b -> 5a 7b                                            
   -0.014961  4a 1b -> 6a 10b                                           
    0.016928  4a 1b -> 6a 18b                                           
    0.029150  4a 1b -> 7a 5b                                            
   -0.020827  4a 1b -> 7a 17b                                           
   -0.017120  3a 1b -> 5a 3b                                            
   -0.016889  3a 1b -> 5a 8b                                            
   -0.014961  3a 1b -> 6a 9b                                            
    0.016928  3a 1b -> 6a 21b                                           
    0.029149  3a 1b -> 8a 5b                                            
   -0.020827  3a 1b -> 8a 17b                                           
   -0.036047  1a 2a -> 5a 6a                                            
   -0.010900  1a 2a -> 6a 13a                                           
   -0.035956  1a 2a -> 6a 17a                                           
    0.018024  1a 4a -> 5a 7a                                            
    0.017979  1a 4a -> 7a 17a                                           
    0.032607  2a 4a -> 6a 7a                                            
   -0.012420  2a 4a -> 5a 10a                                           
    0.034847  2a 4a -> 7a 14a                                           
    0.069285  2a 4a -> 6a 15a                                           
    0.018023  1a 3a -> 5a 8a                                            
    0.017978  1a 3a -> 8a 17a                                           
    0.032608  2a 3a -> 6a 8a                                            
   -0.012420  2a 3a -> 5a 9a                                            
    0.034846  2a 3a -> 8a 14a                                           
    0.069285  2a 3a -> 6a 16a                                           
    0.065215  3a 4a -> 7a 8a                                            
   -0.034438  3a 4a -> 8a 15a                                           
    0.034440  3a 4a -> 7a 16a                                           
   -0.010259  3a 4a 1b -> 7a 8a 5b                                      
    0.010505  2a 3a 4a -> 7a 8a 14a                                     
 
 ************************ 2018-07-06 01:05:12 *************************
                      Normal termination of mrcc.
 **********************************************************************
--executable dmrcc finished with status     0 in      139.26 seconds (walltime).
  The final electronic energy is       -54.037139160705173 a.u. 
  This computation required                          152.18 seconds (walltime).
--- SharcNET Job Epilogue ---
Job completed successfully.
               jobid: 1552015
               resid: 3029747
         exit status: 0
      allocated time: 153.317
           user time: 186.4
         system time: 6.53
peak rss=210251776; peak vsz=210251776 (bytes)
atime=153.317; utime=186.4; stime=6.53; exit=0
