 **********************************************************************
                          MRCC program system
 **********************************************************************
 
                              Written by
    Mihaly Kallay, Zoltan Rolik, Jozsef Csontos, Istvan Ladjanszki,
       Lorant Szegedy, Bence Ladoczki, Gyula Samu, Klara Petrov,
        Mate Farkas, Peter Nagy, David Mester, and Bence Hegely
 
        Department of Physical Chemistry and Materials Science
            Budapest University of Technology and Economics
                  Budapest P.O.Box 91, H-1521 Hungary
 
                              www.mrcc.hu

 ************************ 2018-06-30 17:42:36 *************************
 Executing minp...

 Reading input from MINP...
 
 Input file:
 
# N 2Z
basis=aVDZ-EMSL
#iface=cfour
uncontract=off
calc=CC(5)
mem=8GB
core=1
itol=18
scftol=13
cctol=7
ccmaxit=999
scfmaxit=9999
scfiguess=ao
scftype=ROHF
rohftype=semicanonical
rest=2
charge=+0
#refdet=serialno
#1,2
#3,4,5

#symm=1
mult=4
#occ=3,0,0,0,0,1,0,0/1,0,0,0,0,1,0,0
geom
N

#Li 1 R

#R=3.065

#unit=angstroms

tprint=0.01
verbosity=3
nstate=4

 
 
 Checking keyword combinations...
 
 Keywords:
 
 active=none
 agrid=ld0006-ld0590
 basis=avdz-emsl
 basopt=off
 bpcompo=0.985
 bpcompv=0.98
 bpdfo=0.985
 bpocc=0.985
 bppdo=0.985
 bppdv=0.98
 bpedo=0.985
 bpedv=0.98
 calc=cc(5)
 ccmaxit=999
 ccprog=mrcc
 cctol=7
 charge=+0
 cialg=disk
 ciguess=off
 cmpgrp=auto
 core=1
 corembed=off
 dboc=off
 dendec=cholesky
 dens=0
 dfalg=invsqrt
 dfbasis_cor=none
 dfbasis_scf=none
 dfintran=ovirt
 dft=off
 diag=david
 domrad=10.d0
 drpaalg=fit
 ecp=auto
 edisp=off
 embed=off
 epert=none
 eps=0.975
 excrad=0.d0
 excrad_fin=0.000000000D+00
 freq=off
 gauss=spher
 geom=zmat
 gopt=off
 ghost=none
 gtol=7
 grtol=10
 hamilton=dc
 iface=none
 intalg=auto
 itol=18
 lcorthr=loose
 lccrest=off
 lmp2dens=on
 lnoepso=3e-5
 lnoepsv=1e-6
 localcc=off
 locintrf=disk
 maxact=off
 maxex=0
 bfbasis=none
 mem=8gb
 molden=on
 mulmet=0
 mult=4
 nacto=0
 nactv=0
 naf_cor=off
 naf_scf=off
 nafalg=albe
 naftyp=
 nchol=auto
 ndeps=1e-3
 nstate=4
 nsing=0
 ntrip=0
 occ=
 optalg=
 optmaxit=50
 optetol=1e-6
 optgtol=1e-4
 optstol=1e-3
 orblocc=off
 orbloco=off
 orblocv=off
 osveps=1e-3
 ovirt=off
 ovosnorb=80.0
 ptfreq=0.0
 popul=off
 pressure=100000
 qmmm=off
 refdet=none
 rest=2
 rgrid=log3
 rohftype=semicanonical
 scspe=1.d0
 scsps=1.2d0
 scspt=0.33333333333333
 scfalg=auto
 scfdamp=off
 scfdiis=on
 scfdiis_end=9999
 scfdiis_start=1
 scfdiis_step=1
 scfdtol=17
 scfext=10
 scfiguess=ao
 scflshift=off
 scfmaxit=9999
 scftype=rohf
 scftol=13
 spairtol=1e-4
 symm=
 talg=occ
 temp=298.15
 test=off
 tprint=0.01
 uncontract=off
 unit=angs
 verbosity=3
 wpairtol=0.100000000E-05

 ************************ 2018-06-30 17:42:36 *************************
 Executing integ...

 Allocation of 8192.0 Mbytes of memory...
 
 Number of atoms:            1
 Charge:                     0
 Number of electrons:        7
 Number of core electrons:   2
 Spin multiplicity:          4
 
                 Cartesian coordinates [bohr]      Atomic mass [AMU]  Z
   1  N     0.00000000    0.00000000    0.00000000    14.003074       7
 
 This molecule is a spherical top.
 
 Rotational constants [cm-1]: 

 
 Point group: Dxh 
 Computational point group: D2h 
 
 Cartesian coordinates in standard orientation [bohr]
   1  N     0.00000000    0.00000000    0.00000000
 
 Nuclear repulsion energy [au]:          0.000000000000
 
 
 Basis set information:
 
 Maximum angular momentum: d
 Maximum number of contracted Gaussians:    4
 Maximum number of primitive Gaussians:    10
 Spherical harmonic GTOs are used.
 
    1  N  avdz-emsl [ 10s 5p 2d | 4s 3p 2d ]
 
 Basis functions:
           1             2             3             4             5             6             7             8             9            10
   0    1N1s          1N2s          1N3s          1N4s          1N1pz         1N1py         1N1px         1N2pz         1N2py         1N2px     
   1    1N3pz         1N3py         1N3px         1N1d-2        1N1d-1        1N1d0         1N1d+1        1N1d+2        1N2d-2        1N2d-1    
   2    1N2d0         1N2d+1        1N2d+2    
 
 Maximum number of basis functions per shell:   10
 Total number of basis functions:    23
 
 
 Character table for point group D2h:
 
          E  C2z C2y C2x  i  Qxy Qxz Qyz 
    Ag    1   1   1   1   1   1   1   1
    B1g   1   1  -1  -1   1   1  -1  -1
    B2g   1  -1   1  -1   1  -1   1  -1
    B3g   1  -1  -1   1   1  -1  -1   1
    Au    1   1   1   1  -1  -1  -1  -1
    B1u   1   1  -1  -1  -1  -1   1   1
    B2u   1  -1   1  -1  -1   1  -1   1
    B3u   1  -1  -1   1  -1   1   1  -1
 
 Number of basis functions per irrep:
    Ag      8
    B1g     2
    B2g     2
    B3g     2
    Au      0
    B1u     3
    B2u     3
    B3u     3
 
 
 Calculation of overlap integrals...
 CPU time [min]:     0.015                   Wall time [min]:     0.009
 Calculation of kinetic energy integrals...
 CPU time [min]:     0.018                   Wall time [min]:     0.009
 Calculation of dipole moment integrals...
 CPU time [min]:     0.028                   Wall time [min]:     0.010
 Calculation of second moment integrals...
 CPU time [min]:     0.047                   Wall time [min]:     0.011
 Calculation of third moment integrals...
 CPU time [min]:     0.088                   Wall time [min]:     0.013
 Calculation of linear momentum integrals...
 CPU time [min]:     0.100                   Wall time [min]:     0.014
 Calculation of angular momentum integrals...
 CPU time [min]:     0.110                   Wall time [min]:     0.014
 Calculation of nuclear attraction integrals...
 CPU time [min]:     0.115                   Wall time [min]:     0.015
 
 Calculation of prescreening integrals...
 CPU time [min]:     0.134                   Wall time [min]:     0.016
 
 Calculation of two-electron integrals...
  11% done.
 100% done.
 CPU time [min]:     0.144                   Wall time [min]:     0.016

 ************************ 2018-06-30 17:42:37 *************************
 Executing scf...

 @scfsetup: integrals taken from disk
            mrcc/integ binary format
 @scfsetup: calc on blockdiagonal matrices
            using symmetry adapted basis
 @scfsetup: diis switched on
 @scfsetup: number of steps to extrapolate from  10
 @scfsetup: tolerance in energy deviation    0.100000E-12
            tolerance in density deviation    0.100000E-16
 @scfsetup: maximum number of iterations:9999
 @scfsetup: restricted open shell hf calc
            semicanonical orbitals
 @scfsetup: starting scf from diagonal ao guess
 @scfsetup: occupation set:
            from initial orbitals
 @scfsetup: diis bmat treshold:    1.0000E-30
 @scfsetup: diis runs from iteration:   1
 @scfsetup: diis runs to iteration:9999
 @scfsetup: diis runs in every   1 iteration
 Allocation of 8192.0 Mbytes of memory...
 ======================================================================
 ITERATION STEP   1
 CPU time [min]:     0.001                   Wall time [min]:     0.016
 
 @SCF: CHECKING CLOSED SHELL DENSITY MATRIX
 @check_dens: symmetry of density matrix OK!
 @check_dens: norm of density matrix OK!
 @check_dens: density idempotency OK!
 @SCF: CHECKING OPEN SHELL DENSITY MATRIX
 @check_dens: symmetry of density matrix OK!
 @check_dens: norm of density matrix OK!
 @check_dens: density idempotency OK!
 Squared Frobenius norm of total diff density:         0.39458352726744
 Squared Frobenius norm of open  diff density:         1.87240200662137
 ALPHA OCC:   2   0   0   0   0   1   1   1
 BETA  OCC:   2   0   0   0   0   0   0   0
 ***HARTREE-FOCK ENERGY IN STEP   1 IS     -54.6762990750821132 [AU]
 ======================================================================
 ITERATION STEP   2
 CPU time [min]:     0.107                   Wall time [min]:     0.036
 
 @scf diis running in this iteration
 @diis: reciprocal condition number    0.1000E+01
 @SCF: CHECKING CLOSED SHELL DENSITY MATRIX
 @check_dens: symmetry of density matrix OK!
 @check_dens: norm of density matrix OK!
 @check_dens: density idempotency OK!
 @SCF: CHECKING OPEN SHELL DENSITY MATRIX
 @check_dens: symmetry of density matrix OK!
 @check_dens: norm of density matrix OK!
 @check_dens: density idempotency OK!
 Squared Frobenius norm of total diff density:         0.14992066902247
 Squared Frobenius norm of open  diff density:         0.14571234824050
 ALPHA OCC:   2   0   0   0   0   1   1   1
 BETA  OCC:   2   0   0   0   0   0   0   0
 ***HARTREE-FOCK ENERGY IN STEP   2 IS     -54.3798806218188417 [AU]
 ======================================================================
 ITERATION STEP   3
 CPU time [min]:     0.184                   Wall time [min]:     0.062
 
 @scf diis running in this iteration
 @diis: reciprocal condition number    0.1180E+00
 @SCF: CHECKING CLOSED SHELL DENSITY MATRIX
 @check_dens: symmetry of density matrix OK!
 @check_dens: norm of density matrix OK!
 @check_dens: density idempotency OK!
 @SCF: CHECKING OPEN SHELL DENSITY MATRIX
 @check_dens: symmetry of density matrix OK!
 @check_dens: norm of density matrix OK!
 @check_dens: density idempotency OK!
 Squared Frobenius norm of total diff density:         0.04717193796227
 Squared Frobenius norm of open  diff density:         0.01795552824201
 ALPHA OCC:   2   0   0   0   0   1   1   1
 BETA  OCC:   2   0   0   0   0   0   0   0
 ***HARTREE-FOCK ENERGY IN STEP   3 IS     -54.3851140706078482 [AU]
 ======================================================================
 ITERATION STEP   4
 CPU time [min]:     0.270                   Wall time [min]:     0.078
 
 @scf diis running in this iteration
 @diis: reciprocal condition number    0.6112E-03
 @SCF: CHECKING CLOSED SHELL DENSITY MATRIX
 @check_dens: symmetry of density matrix OK!
 @check_dens: norm of density matrix OK!
 @check_dens: density idempotency OK!
 @SCF: CHECKING OPEN SHELL DENSITY MATRIX
 @check_dens: symmetry of density matrix OK!
 @check_dens: norm of density matrix OK!
 @check_dens: density idempotency OK!
 Squared Frobenius norm of total diff density:         0.00056450234378
 Squared Frobenius norm of open  diff density:         0.00010726715787
 ALPHA OCC:   2   0   0   0   0   1   1   1
 BETA  OCC:   2   0   0   0   0   0   0   0
 ***HARTREE-FOCK ENERGY IN STEP   4 IS     -54.3898414825147540 [AU]
 ======================================================================
 ITERATION STEP   5
 CPU time [min]:     0.273                   Wall time [min]:     0.079
 
 @scf diis running in this iteration
 @diis: reciprocal condition number    0.1456E-04
 @SCF: CHECKING CLOSED SHELL DENSITY MATRIX
 @check_dens: symmetry of density matrix OK!
 @check_dens: norm of density matrix OK!
 @check_dens: density idempotency OK!
 @SCF: CHECKING OPEN SHELL DENSITY MATRIX
 @check_dens: symmetry of density matrix OK!
 @check_dens: norm of density matrix OK!
 @check_dens: density idempotency OK!
 Squared Frobenius norm of total diff density:         0.00000396798280
 Squared Frobenius norm of open  diff density:         0.00000085843930
 ALPHA OCC:   2   0   0   0   0   1   1   1
 BETA  OCC:   2   0   0   0   0   0   0   0
 ***HARTREE-FOCK ENERGY IN STEP   5 IS     -54.3898704265271888 [AU]
 ======================================================================
 ITERATION STEP   6
 CPU time [min]:     0.280                   Wall time [min]:     0.079
 
 @scf diis running in this iteration
 @diis: reciprocal condition number    0.6124E-07
 @SCF: CHECKING CLOSED SHELL DENSITY MATRIX
 @check_dens: symmetry of density matrix OK!
 @check_dens: norm of density matrix OK!
 @check_dens: density idempotency OK!
 @SCF: CHECKING OPEN SHELL DENSITY MATRIX
 @check_dens: symmetry of density matrix OK!
 @check_dens: norm of density matrix OK!
 @check_dens: density idempotency OK!
 Squared Frobenius norm of total diff density:         0.00000020948577
 Squared Frobenius norm of open  diff density:         0.00000014214699
 ALPHA OCC:   2   0   0   0   0   1   1   1
 BETA  OCC:   2   0   0   0   0   0   0   0
 ***HARTREE-FOCK ENERGY IN STEP   6 IS     -54.3898707054225525 [AU]
 ======================================================================
 ITERATION STEP   7
 CPU time [min]:     0.288                   Wall time [min]:     0.079
 
 @scf diis running in this iteration
 @diis: reciprocal condition number    0.2173E-10
 @SCF: CHECKING CLOSED SHELL DENSITY MATRIX
 @check_dens: symmetry of density matrix OK!
 @check_dens: norm of density matrix OK!
 @check_dens: density idempotency OK!
 @SCF: CHECKING OPEN SHELL DENSITY MATRIX
 @check_dens: symmetry of density matrix OK!
 @check_dens: norm of density matrix OK!
 @check_dens: density idempotency OK!
 Squared Frobenius norm of total diff density:         0.00000000126806
 Squared Frobenius norm of open  diff density:         0.00000000124015
 ALPHA OCC:   2   0   0   0   0   1   1   1
 BETA  OCC:   2   0   0   0   0   0   0   0
 ***HARTREE-FOCK ENERGY IN STEP   7 IS     -54.3898707288566641 [AU]
 ======================================================================
 ITERATION STEP   8
 CPU time [min]:     0.295                   Wall time [min]:     0.080
 
 @scf diis running in this iteration
 @diis: reciprocal condition number    0.1321E-14
 @SCF: CHECKING CLOSED SHELL DENSITY MATRIX
 @check_dens: symmetry of density matrix OK!
 @check_dens: norm of density matrix OK!
 @check_dens: density idempotency OK!
 @SCF: CHECKING OPEN SHELL DENSITY MATRIX
 @check_dens: symmetry of density matrix OK!
 @check_dens: norm of density matrix OK!
 @check_dens: density idempotency OK!
 Squared Frobenius norm of total diff density:         0.00000000000016
 Squared Frobenius norm of open  diff density:         0.00000000000006
 ALPHA OCC:   2   0   0   0   0   1   1   1
 BETA  OCC:   2   0   0   0   0   0   0   0
 ***HARTREE-FOCK ENERGY IN STEP   8 IS     -54.3898707290862831 [AU]
 ======================================================================
 ITERATION STEP   9
 CPU time [min]:     0.304                   Wall time [min]:     0.080
 
 @scf diis running in this iteration
 @diis: reciprocal condition number    0.2117E-19
 @SCF: CHECKING CLOSED SHELL DENSITY MATRIX
 @check_dens: symmetry of density matrix OK!
 @check_dens: norm of density matrix OK!
 @check_dens: density idempotency OK!
 @SCF: CHECKING OPEN SHELL DENSITY MATRIX
 @check_dens: symmetry of density matrix OK!
 @check_dens: norm of density matrix OK!
 @check_dens: density idempotency OK!
 Squared Frobenius norm of total diff density:         0.00000000000000
 Squared Frobenius norm of open  diff density:         0.00000000000000
 ALPHA OCC:   2   0   0   0   0   1   1   1
 BETA  OCC:   2   0   0   0   0   0   0   0
 ***HARTREE-FOCK ENERGY IN STEP   9 IS     -54.3898707290862831 [AU]
 ======================================================================
 ITERATION STEP  10
 CPU time [min]:     0.311                   Wall time [min]:     0.081
 
 @scf diis running in this iteration
 @diis: reciprocal condition number    0.2372E-25
 @SCF: CHECKING CLOSED SHELL DENSITY MATRIX
 @check_dens: symmetry of density matrix OK!
 @check_dens: norm of density matrix OK!
 @check_dens: density idempotency OK!
 @SCF: CHECKING OPEN SHELL DENSITY MATRIX
 @check_dens: symmetry of density matrix OK!
 @check_dens: norm of density matrix OK!
 @check_dens: density idempotency OK!
 Squared Frobenius norm of total diff density:         0.00000000000000
 Squared Frobenius norm of open  diff density:         0.00000000000000
 ALPHA OCC:   2   0   0   0   0   1   1   1
 BETA  OCC:   2   0   0   0   0   0   0   0
 ***HARTREE-FOCK ENERGY IN STEP  10 IS     -54.3898707290862831 [AU]
 ======================================================================
 
 SUCCESS...
 THE SCF ITERATION HAS CONVERGED!
 
                   Ag  B1g B2g B3g Au  B1u B2u B3u 
 FINAL ALPHA OCC:   2   0   0   0   0   1   1   1
 FINAL BETA  OCC:   2   0   0   0   0   0   0   0
 
 ***FINAL HARTREE-FOCK ENERGY:    -54.3898707290862831 [AU]
 ***SEMICANONICAL ROHF ENERGY:    -54.3898707290862689 [AU]
 
 Orbital energies [au]:
      Irrep         Alpha          Beta
    1   Ag       -15.680179     -15.594694
    2   Ag        -1.153722      -0.743366
 
    3   B2u       -0.567555       0.083327
    4   B1u       -0.567555       0.083327
    5   B3u       -0.567555       0.083327
 
    6   Ag         0.138967       0.162080
    7   B3u        0.155869       0.262093
    8   B1u        0.155869       0.262093
    9   B2u        0.155869       0.262093
   10   Ag         0.650441       0.716779
   11   B1g        0.650441       0.716779
   12   Ag         0.650441       0.716779
   13   B2g        0.650441       0.716779
   14   B3g        0.650441       0.716779
   15   B2u        1.031651       1.216976
   16   B1u        1.031651       1.216976
   17   B3u        1.031651       1.216976
   18   Ag         1.294742       1.402389
   19   Ag         2.383392       2.558421
   20   B1g        2.383392       2.558421
   21   Ag         2.383392       2.558421
   22   B3g        2.383392       2.558421
   23   B2g        2.383392       2.558421
 
 RETURNING FROM SCF ALGORITHM
 ======================================================================

 ************************ 2018-06-30 17:42:44 *************************
 Executing ovirt...

 ovirt, the routine of orbital optimization and integral transformation 
Sat Jun 30 17:42:44 EDT 2018
 memory =                   8192  Mb            1073741824  8 byte word
 mrccboot = T
 scftype  = rohf 
 localcc  = off 
 core     = 1   
 ovirt    = off  
 ccprog   = mrcc
 dfnbasis =                      0
 dfbasis_cor =none                
 lmp2dens = on 
 dens =                      0
 verblev =                      3
 task     =                      4
 epsilon =   0.975000000000000     
 lmp2= on 
 localNO  =  F
 localMP2 =  F
 localMP2_TEST =  F
 LMP2_shortcut =  F
 FOCKTR   =  F
 Allocated memory:                    8192  Mb
 onbasis=                    23
 UHF calculation! 
 integral transformation: AOs --- MOs (alpha-alpha)
 # of basis functions, # of int. blocks    23     1
100 % 
 second part
100 %
 integral transformation is completed! 
 integral transformation: AOs ------ MOs (beta-beta)
 # of basis functions, # of int. blocks    23     1
100 % 
 second part
100 %
 integral transformation is completed! 
 integral transformation: AOs ----- MOs (alpha-beta)
 size                   2645                     1
# of basis functions, # of int. blocks    23     1
 integral transformation
======================================== 
Sat Jun 30 17:42:45 EDT 2018
  ovirt terminated normally 

 ************************ 2018-06-30 17:42:46 *************************
 Executing goldstone...

 Generation of CC equations in terms of H and T...
 Generation of antisymmetrized Goldstone diagrams...
 Number of diagrams in T^1 equations:    15
 Number of diagrams in T^2 equations:    38
 Number of diagrams in T^3 equations:    54
 Number of diagrams in T^4 equations:    80
 Number of diagrams in T^5 equations:    99
 Translation of diagrams to factorized equations...
 Optimizing intermediate calculation...
 Optimizing right-hand EOMCC calculation...
 Number of floating-point operations per iteration step:   5.5097E+08
 Probable CPU time per iteration step (hours):      0.01
 Required memory (Mbytes):      19.5
 Number of intermediates:                                 348
 Number of intermediates to be stored:                    133
 Length of intermediate file (Mbytes):      28.4

 ************************ 2018-06-30 17:42:50 *************************
 Executing xmrcc...

 **********************************************************************
 CC(                     5 ) calculation 
 
 
 Allocation of 100.0 Mbytes of memory...
 Number of spinorbitals:                    44
 Number of alpha electrons:                        4
 Number of beta electrons:                         1
 z-component of spin:  1.5
 Spatial symmetry:                      5
 Convergence criterion:  1.0E-07
 Construction of occupation graphs...
 Number of                     0 -fold excitations:                      1
 Number of                     1 -fold excitations:                     18
 Number of                     2 -fold excitations:                    336
 Number of                     3 -fold excitations:                   2831
 Number of                     4 -fold excitations:                   9060
 Number of                     5 -fold excitations:                   8220
 Total number of configurations:                  20466
 Calculation of coupling coefficients...
 Length of intermediate file (Mbytes):      10.8
 
 ======================================================================
 
 ======================================================================
 
 ======================================================================
 
 ======================================================================
 
 Memory requirements /Mbyte/: 
               Minimal        Optimal
 Real*8:         35.3694        35.3714
 Integer:         5.3420
 Total:          40.7115        40.7134
 

 ************************ 2018-06-30 17:42:52 *************************
 Executing goldstone...

 Generation of CC equations in terms of H and T...
 Generation of antisymmetrized Goldstone diagrams...
 Number of diagrams in T^1 equations:     8
 Translation of diagrams to factorized equations...
 Optimizing intermediate calculation...
 Optimizing right-hand EOMCC calculation...
 Number of floating-point operations per iteration step:   4.1332E+02
 Probable CPU time per iteration step (hours):      0.00
 Required memory (Mbytes):      19.5
 Number of intermediates:                                  19
 Number of intermediates to be stored:                      9
 Length of intermediate file (Mbytes):       0.0

 ************************ 2018-06-30 17:42:52 *************************
 Executing xmrcc...

 **********************************************************************
 CC(                     1 ) calculation 
 
 
 Allocation of 100.0 Mbytes of memory...
 Number of spinorbitals:                    44
 Number of alpha electrons:                        4
 Number of beta electrons:                         1
 z-component of spin:  1.5
 Spatial symmetry:                      5
 Convergence criterion:  1.0E-07
 Construction of occupation graphs...
 Number of                     0 -fold excitations:                      1
 Number of                     1 -fold excitations:                     18
 Total number of configurations:                     19
 Calculation of coupling coefficients...
 Length of intermediate file (Mbytes):       0.1
 
 ======================================================================
 
 ======================================================================
 
 ======================================================================
 
 ======================================================================
 
 Memory requirements /Mbyte/: 
               Minimal        Optimal
 Real*8:          0.0886         1.7985
 Integer:         3.2885
 Total:           3.3771         5.0870
 

 ************************ 2018-06-30 17:42:52 *************************
 Executing mrcc...

 **********************************************************************
 LR-CCS calculation                                                     
 
 
 OpenMP parallel version is running.
 Number of CPUs:  20
 Allocation of    1.8 Mbytes of memory...
 Number of spinorbitals:  44
 Number of alpha electrons:  4
 Number of beta  electrons:  1
 z-component of spin:  1.5
 Spatial symmetry: 5
 Convergence criterion:  1.0E-07
 Construction of occupation graphs...
 Number of 0-fold excitations: 1
 Number of 1-fold excitations: 18
 Total number of determinants: 19
 Calculation of coupling coefficients...
 Initial cluster amplitudes are generated.
 Length of intermediate file (Mbytes):       0.1
 Reading integral list from unit 55...
 Sorting integrals...
 Sorting integrals...
 Sorting integrals...
 Sorting integrals...
 Energy of reference determinant [au]:     -54.389870729086
 Calculation of diagonal elements of Hamiltonian...
 Calculation of MP denominators...
 
 Starting CC iteration...
 ======================================================================
 Norm of residual vector:     0.05865400
 CPU time [min]:     0.110                   Wall time [min]:     0.007
 
 Iteration  1  CC energy:   -54.39188991  Energy decrease:   0.00201918
 ======================================================================
 Norm of residual vector:     0.01824680
 CPU time [min]:     0.117                   Wall time [min]:     0.007
 
 Iteration  2  CC energy:   -54.39279272  Energy decrease:   0.00090281
 ======================================================================
 Norm of residual vector:     0.00180444
 CPU time [min]:     0.117                   Wall time [min]:     0.007
 
 Iteration  3  CC energy:   -54.39284257  Energy decrease:   0.00004985
 ======================================================================
 Norm of residual vector:     0.00013558
 CPU time [min]:     0.118                   Wall time [min]:     0.007
 
 Iteration  4  CC energy:   -54.39284205  Energy decrease:   0.00000052
 ======================================================================
 Norm of residual vector:     0.00000819
 CPU time [min]:     0.118                   Wall time [min]:     0.007
 
 Iteration  5  CC energy:   -54.39284197  Energy decrease:   0.00000008
 ======================================================================
 Norm of residual vector:     0.00000082
 CPU time [min]:     0.118                   Wall time [min]:     0.007
 
 Iteration  6  CC energy:   -54.39284197  Energy decrease:   0.00000001
 ======================================================================
 Norm of residual vector:     0.00000016
 CPU time [min]:     0.119                   Wall time [min]:     0.007
 
 Iteration  7  CC energy:   -54.39284197  Energy decrease:   1.1051E-09
 ======================================================================
 Norm of residual vector:     0.00000001
 CPU time [min]:     0.119                   Wall time [min]:     0.007
 
 Iteration  8  CC energy:   -54.39284198  Energy decrease:   9.3664E-11
 ======================================================================
 
 Iteration has converged in  8 steps.
 
 Final results:
 Total CCS energy [au]:              -54.392841975039
 Spin multiplicity:                     2
 
 
 
 Dominant cluster amplitudes
 Printing threshold:  1.00E-02
 
    1.000000  Reference determinant                                     
    0.038911  2b -> 6b                                                  
    0.024293  2b -> 18b                                                 
   -0.025152  2a -> 6a                                                  
   -0.019485  2a -> 18a                                                 
 
 Starting right-hand LR-CC iteration for root                      2 ...
 ======================================================================
 Norm of residual vector:     0.08401739      Convergence:   1.00000000
 CPU time [min]:     0.135                   Wall time [min]:     0.008
 
 Iteration  1  CI energy:   -53.88954591  Energy decrease:   0.50329606
 ======================================================================
 Norm of residual vector:     0.08891180      Convergence:   0.56707189
 CPU time [min]:     0.144                   Wall time [min]:     0.009
 
 Iteration  2  CI energy:   -53.89859649  Energy decrease:   0.00905057
 ======================================================================
 Norm of residual vector:     0.00374496      Convergence:   0.13882492
 CPU time [min]:     0.148                   Wall time [min]:     0.009
 
 Iteration  3  CI energy:   -53.91062779  Energy decrease:   0.01203130
 ======================================================================
 Norm of residual vector:     0.00051038      Convergence:   0.00487191
 CPU time [min]:     0.148                   Wall time [min]:     0.009
 
 Iteration  4  CI energy:   -53.91064233  Energy decrease:   0.00001454
 ======================================================================
 Norm of residual vector:     0.00018242      Convergence:   0.00077413
 CPU time [min]:     0.149                   Wall time [min]:     0.009
 
 Iteration  5  CI energy:   -53.91064272  Energy decrease:   0.00000040
 ======================================================================
 Norm of residual vector:     0.00004326      Convergence:   0.00039831
 CPU time [min]:     0.149                   Wall time [min]:     0.009
 
 Iteration  6  CI energy:   -53.91064277  Energy decrease:   0.00000005
 ======================================================================
 Norm of residual vector:     0.00000204      Convergence:   0.00002484
 CPU time [min]:     0.150                   Wall time [min]:     0.009
 
 Iteration  7  CI energy:   -53.91064277  Energy decrease:   3.7066E-09
 ======================================================================
 Norm of residual vector:     0.00000006      Convergence:   0.00000142
 CPU time [min]:     0.151                   Wall time [min]:     0.009
 
 Iteration  8  CI energy:   -53.91064277  Energy decrease:   1.6574E-10
 ======================================================================
 
 Iteration has converged in  8 steps.
 
 Final results:
 Total LR-CCS energy [au]:           -53.910642770702
 Excitation energy [eV]:          13.1213
 Excitation energy [cm^-1]:   105830.50
 Absorption wavelength [nm]:      94.49
 Spin multiplicity:                     2
 
 
 
 Dominant CI coefficients
 Printing threshold:  1.00E-02
 
   -0.017236  2a -> 10a                                                 
    0.011836  2a -> 19a                                                 
    0.809234  4a -> 8a                                                  
    0.107173  4a -> 16a                                                 
   -0.404617  3a -> 9a                                                  
   -0.053586  3a -> 15a                                                 
   -0.404617  5a -> 7a                                                  
   -0.053586  5a -> 17a                                                 
 
 Starting right-hand LR-CC iteration for root                      3 ...
 ======================================================================
 Norm of residual vector:     0.08401739      Convergence:   1.00000000
 CPU time [min]:     0.151                   Wall time [min]:     0.009
 
 Iteration  1  CI energy:   -53.88954591  Energy decrease:   0.50329606
 ======================================================================
 Norm of residual vector:     0.08891180      Convergence:   0.56707189
 CPU time [min]:     0.152                   Wall time [min]:     0.009
 
 Iteration  2  CI energy:   -53.89859649  Energy decrease:   0.00905057
 ======================================================================
 Norm of residual vector:     0.00374496      Convergence:   0.13882492
 CPU time [min]:     0.152                   Wall time [min]:     0.009
 
 Iteration  3  CI energy:   -53.91062779  Energy decrease:   0.01203130
 ======================================================================
 Norm of residual vector:     0.00051038      Convergence:   0.00487191
 CPU time [min]:     0.153                   Wall time [min]:     0.009
 
 Iteration  4  CI energy:   -53.91064233  Energy decrease:   0.00001454
 ======================================================================
 Norm of residual vector:     0.00018242      Convergence:   0.00077413
 CPU time [min]:     0.153                   Wall time [min]:     0.009
 
 Iteration  5  CI energy:   -53.91064272  Energy decrease:   0.00000040
 ======================================================================
 Norm of residual vector:     0.00004326      Convergence:   0.00039831
 CPU time [min]:     0.154                   Wall time [min]:     0.009
 
 Iteration  6  CI energy:   -53.91064277  Energy decrease:   0.00000005
 ======================================================================
 Norm of residual vector:     0.00000204      Convergence:   0.00002484
 CPU time [min]:     0.155                   Wall time [min]:     0.009
 
 Iteration  7  CI energy:   -53.91064277  Energy decrease:   3.7066E-09
 ======================================================================
 Norm of residual vector:     0.00000006      Convergence:   0.00000142
 CPU time [min]:     0.155                   Wall time [min]:     0.009
 
 Iteration  8  CI energy:   -53.91064277  Energy decrease:   1.6574E-10
 ======================================================================
 
 Iteration has converged in  8 steps.
 
 Final results:
 Total LR-CCS energy [au]:           -53.910642770702
 Excitation energy [eV]:          13.1213
 Excitation energy [cm^-1]:   105830.50
 Absorption wavelength [nm]:      94.49
 Spin multiplicity:                     2
 
 
 
 Dominant CI coefficients
 Printing threshold:  1.00E-02
 
    0.015032  2a -> 12a                                                 
   -0.010500  2a -> 21a                                                 
   -0.404617  4a -> 8a                                                  
   -0.053586  4a -> 16a                                                 
    0.809234  3a -> 9a                                                  
    0.107173  3a -> 15a                                                 
   -0.404617  5a -> 7a                                                  
   -0.053586  5a -> 17a                                                 
 
 Starting right-hand LR-CC iteration for root                      4 ...
 ======================================================================
 Norm of residual vector:     0.08401739      Convergence:   1.00000000
 CPU time [min]:     0.156                   Wall time [min]:     0.009
 
 Iteration  1  CI energy:   -53.88954591  Energy decrease:   0.50329606
 ======================================================================
 Norm of residual vector:     0.08891180      Convergence:   0.56707189
 CPU time [min]:     0.156                   Wall time [min]:     0.009
 
 Iteration  2  CI energy:   -53.89859649  Energy decrease:   0.00905057
 ======================================================================
 Norm of residual vector:     0.00374496      Convergence:   0.13882492
 CPU time [min]:     0.157                   Wall time [min]:     0.009
 
 Iteration  3  CI energy:   -53.91062779  Energy decrease:   0.01203130
 ======================================================================
 Norm of residual vector:     0.00051038      Convergence:   0.00487191
 CPU time [min]:     0.157                   Wall time [min]:     0.009
 
 Iteration  4  CI energy:   -53.91064233  Energy decrease:   0.00001454
 ======================================================================
 Norm of residual vector:     0.00018242      Convergence:   0.00077413
 CPU time [min]:     0.158                   Wall time [min]:     0.009
 
 Iteration  5  CI energy:   -53.91064272  Energy decrease:   0.00000040
 ======================================================================
 Norm of residual vector:     0.00004326      Convergence:   0.00039831
 CPU time [min]:     0.159                   Wall time [min]:     0.010
 
 Iteration  6  CI energy:   -53.91064277  Energy decrease:   0.00000005
 ======================================================================
 Norm of residual vector:     0.00000204      Convergence:   0.00002484
 CPU time [min]:     0.159                   Wall time [min]:     0.010
 
 Iteration  7  CI energy:   -53.91064277  Energy decrease:   3.7066E-09
 ======================================================================
 Norm of residual vector:     0.00000006      Convergence:   0.00000142
 CPU time [min]:     0.160                   Wall time [min]:     0.010
 
 Iteration  8  CI energy:   -53.91064277  Energy decrease:   1.6574E-10
 ======================================================================
 
 Iteration has converged in  8 steps.
 
 Final results:
 Total LR-CCS energy [au]:           -53.910642770702
 Excitation energy [eV]:          13.1213
 Excitation energy [cm^-1]:   105830.50
 Absorption wavelength [nm]:      94.49
 Spin multiplicity:                     2
 
 Dominant CI coefficients
 Printing threshold:  1.00E-02
 
   -0.014822  2a -> 12a                                                 
   -0.404617  4a -> 8a                                                  
   -0.053586  4a -> 16a                                                 
   -0.404617  3a -> 9a                                                  
   -0.053586  3a -> 15a                                                 
    0.809234  5a -> 7a                                                  
    0.107173  5a -> 17a                                                 

 ************************ 2018-06-30 17:42:54 *************************
 Executing goldstone...

 Generation of CC equations in terms of H and T...
 Generation of antisymmetrized Goldstone diagrams...
 Number of diagrams in T^1 equations:    14
 Number of diagrams in T^2 equations:    31
 Translation of diagrams to factorized equations...
 Optimizing intermediate calculation...
 Optimizing right-hand EOMCC calculation...
 Number of floating-point operations per iteration step:   2.5012E+05
 Probable CPU time per iteration step (hours):      0.00
 Required memory (Mbytes):      19.5
 Number of intermediates:                                  84
 Number of intermediates to be stored:                     36
 Length of intermediate file (Mbytes):       0.5

 ************************ 2018-06-30 17:42:54 *************************
 Executing xmrcc...

 **********************************************************************
 CC(                     2 ) calculation 
 
 
 Allocation of 100.0 Mbytes of memory...
 Number of spinorbitals:                    44
 Number of alpha electrons:                        4
 Number of beta electrons:                         1
 z-component of spin:  1.5
 Spatial symmetry:                      5
 Convergence criterion:  1.0E-07
 Construction of occupation graphs...
 Number of                     0 -fold excitations:                      1
 Number of                     1 -fold excitations:                     18
 Number of                     2 -fold excitations:                    336
 Total number of configurations:                    355
 Calculation of coupling coefficients...
 Length of intermediate file (Mbytes):       0.7
 
 ======================================================================
 
 ======================================================================
 
 ======================================================================
 
 ======================================================================
 
 Memory requirements /Mbyte/: 
               Minimal        Optimal
 Real*8:          0.7799         2.4047
 Integer:         3.4156
 Total:           4.1954         5.8203
 

 ************************ 2018-06-30 17:42:54 *************************
 Executing mrcc...

 **********************************************************************
 LR-CCSD calculation                                                    
 
 
 OpenMP parallel version is running.
 Number of CPUs:  20
 Allocation of    2.4 Mbytes of memory...
 Number of spinorbitals:  44
 Number of alpha electrons:  4
 Number of beta  electrons:  1
 z-component of spin:  1.5
 Spatial symmetry: 5
 Convergence criterion:  1.0E-07
 Construction of occupation graphs...
 Number of 0-fold excitations: 1
 Number of 1-fold excitations: 18
 Number of 2-fold excitations: 336
 Total number of determinants: 355
 Calculation of coupling coefficients...
 Initial cluster amplitudes are read from unit 16.
 Length of intermediate file (Mbytes):       0.7
 Reading integral list from unit 55...
 Sorting integrals...
 Sorting integrals...
 Sorting integrals...
 Sorting integrals...
 Energy of reference determinant [au]:     -54.389870729086
 Calculation of diagonal elements of Hamiltonian...
 Calculation of MP denominators...
 
 Starting CC iteration...
 ======================================================================
 Norm of residual vector:     0.52445412
 CPU time [min]:     0.101                   Wall time [min]:     0.006
 
 Iteration  1  CC energy:   -54.46828225  Energy decrease:   0.07532449
 ======================================================================
 Norm of residual vector:     0.10158489
 CPU time [min]:     0.119                   Wall time [min]:     0.007
 
 Iteration  2  CC energy:   -54.48432147  Energy decrease:   0.01603922
 ======================================================================
 Norm of residual vector:     0.02056638
 CPU time [min]:     0.135                   Wall time [min]:     0.007
 
 Iteration  3  CC energy:   -54.48540626  Energy decrease:   0.00108478
 ======================================================================
 Norm of residual vector:     0.00575017
 CPU time [min]:     0.152                   Wall time [min]:     0.008
 
 Iteration  4  CC energy:   -54.48562814  Energy decrease:   0.00022188
 ======================================================================
 Norm of residual vector:     0.00183803
 CPU time [min]:     0.169                   Wall time [min]:     0.009
 
 Iteration  5  CC energy:   -54.48560656  Energy decrease:   0.00002158
 ======================================================================
 Norm of residual vector:     0.00054992
 CPU time [min]:     0.186                   Wall time [min]:     0.010
 
 Iteration  6  CC energy:   -54.48559477  Energy decrease:   0.00001179
 ======================================================================
 Norm of residual vector:     0.00012212
 CPU time [min]:     0.204                   Wall time [min]:     0.011
 
 Iteration  7  CC energy:   -54.48560402  Energy decrease:   0.00000925
 ======================================================================
 Norm of residual vector:     0.00002758
 CPU time [min]:     0.221                   Wall time [min]:     0.012
 
 Iteration  8  CC energy:   -54.48560266  Energy decrease:   0.00000136
 ======================================================================
 Norm of residual vector:     0.00000565
 CPU time [min]:     0.238                   Wall time [min]:     0.013
 
 Iteration  9  CC energy:   -54.48560279  Energy decrease:   0.00000012
 ======================================================================
 Norm of residual vector:     0.00000106
 CPU time [min]:     0.256                   Wall time [min]:     0.014
 
 Iteration 10  CC energy:   -54.48560280  Energy decrease:   0.00000001
 ======================================================================
 Norm of residual vector:     0.00000021
 CPU time [min]:     0.274                   Wall time [min]:     0.015
 
 Iteration 11  CC energy:   -54.48560278  Energy decrease:   0.00000001
 ======================================================================
 Norm of residual vector:     0.00000003
 CPU time [min]:     0.291                   Wall time [min]:     0.016
 
 Iteration 12  CC energy:   -54.48560279  Energy decrease:   1.7067E-09
 ======================================================================
 
 Iteration has converged in 12 steps.
 
 Final results:
 Total CCSD energy [au]:             -54.485602786383
 Spin multiplicity:                     2
 
 
 
 Dominant cluster amplitudes
 Printing threshold:  1.00E-02
 
    1.000000  Reference determinant                                     
    0.037403  2b -> 6b                                                  
    0.018756  2b -> 18b                                                 
   -0.017121  2a -> 6a                                                  
   -0.018475  2a -> 18a                                                 
   -0.012298  2a 2b -> 18a 6b                                           
   -0.011948  2a 2b -> 6a 18b                                           
   -0.020193  2a 2b -> 18a 18b                                          
   -0.010002  2a 2b -> 19a 19b                                          
   -0.010002  2a 2b -> 21a 21b                                          
   -0.010121  2a 2b -> 20a 20b                                          
   -0.010121  2a 2b -> 23a 23b                                          
   -0.010121  2a 2b -> 22a 22b                                          
    0.012474  2a 2b -> 8a 8b                                            
    0.010923  2a 2b -> 16a 8b                                           
   -0.012682  2a 2b -> 16a 16b                                          
    0.012474  2a 2b -> 9a 9b                                            
    0.010923  2a 2b -> 15a 9b                                           
   -0.012682  2a 2b -> 15a 15b                                          
    0.012474  2a 2b -> 7a 7b                                            
    0.010923  2a 2b -> 17a 7b                                           
   -0.012682  2a 2b -> 17a 17b                                          
   -0.024438  4a 2b -> 10a 4b                                           
   -0.019106  4a 2b -> 19a 4b                                           
   -0.013842  4a 2b -> 6a 8b                                            
    0.027423  4a 2b -> 10a 8b                                           
    0.024593  4a 2b -> 19a 8b                                           
    0.011637  4a 2b -> 6a 16b                                           
    0.013521  4a 2b -> 18a 16b                                          
   -0.011139  4a 2b -> 19a 16b                                          
   -0.021166  4a 2b -> 13a 5b                                           
    0.016561  4a 2b -> 23a 5b                                           
    0.023751  4a 2b -> 13a 7b                                           
   -0.021317  4a 2b -> 23a 7b                                           
   -0.021166  4a 2b -> 14a 3b                                           
    0.016561  4a 2b -> 22a 3b                                           
    0.023751  4a 2b -> 14a 9b                                           
   -0.021317  4a 2b -> 22a 9b                                           
    0.011503  4a 2b -> 8a 6b                                            
    0.017905  4a 2b -> 16a 6b                                           
    0.011781  4a 2b -> 8a 18b                                           
    0.025815  4a 2b -> 16a 18b                                          
    0.011962  3a 2b -> 10a 3b                                           
    0.021313  3a 2b -> 12a 3b                                           
    0.016950  3a 2b -> 21a 3b                                           
   -0.013842  3a 2b -> 6a 9b                                            
   -0.013422  3a 2b -> 10a 9b                                           
   -0.023916  3a 2b -> 12a 9b                                           
   -0.011396  3a 2b -> 19a 9b                                           
   -0.021818  3a 2b -> 21a 9b                                           
    0.011637  3a 2b -> 6a 15b                                           
    0.013521  3a 2b -> 18a 15b                                          
   -0.021166  3a 2b -> 11a 5b                                           
    0.016561  3a 2b -> 20a 5b                                           
    0.023751  3a 2b -> 11a 7b                                           
   -0.021317  3a 2b -> 20a 7b                                           
   -0.021166  3a 2b -> 14a 4b                                           
    0.016561  3a 2b -> 22a 4b                                           
    0.023751  3a 2b -> 14a 8b                                           
   -0.021317  3a 2b -> 22a 8b                                           
    0.011503  3a 2b -> 9a 6b                                            
    0.017905  3a 2b -> 15a 6b                                           
    0.011781  3a 2b -> 9a 18b                                           
    0.025815  3a 2b -> 15a 18b                                          
    0.012477  5a 2b -> 10a 5b                                           
   -0.021016  5a 2b -> 12a 5b                                           
    0.010253  5a 2b -> 19a 5b                                           
   -0.016142  5a 2b -> 21a 5b                                           
   -0.013842  5a 2b -> 6a 7b                                            
   -0.014001  5a 2b -> 10a 7b                                           
    0.023582  5a 2b -> 12a 7b                                           
   -0.013197  5a 2b -> 19a 7b                                           
    0.020778  5a 2b -> 21a 7b                                           
    0.011637  5a 2b -> 6a 17b                                           
    0.013521  5a 2b -> 18a 17b                                          
   -0.021166  5a 2b -> 11a 3b                                           
    0.016561  5a 2b -> 20a 3b                                           
    0.023751  5a 2b -> 11a 9b                                           
   -0.021317  5a 2b -> 20a 9b                                           
   -0.021166  5a 2b -> 13a 4b                                           
    0.016561  5a 2b -> 23a 4b                                           
    0.023751  5a 2b -> 13a 8b                                           
   -0.021317  5a 2b -> 23a 8b                                           
    0.011503  5a 2b -> 7a 6b                                            
    0.017905  5a 2b -> 17a 6b                                           
    0.011781  5a 2b -> 7a 18b                                           
    0.025815  5a 2b -> 17a 18b                                          
    0.010980  3a 5a -> 7a 9a                                            
   -0.015442  3a 5a -> 11a 12a                                          
    0.015789  3a 5a -> 7a 15a                                           
   -0.015789  3a 5a -> 9a 17a                                           
   -0.029263  3a 5a -> 15a 17a                                          
   -0.010770  3a 5a -> 12a 20a                                          
   -0.010761  3a 5a -> 11a 21a                                          
    0.014830  3a 5a -> 20a 21a                                          
    0.010980  4a 5a -> 7a 8a                                            
   -0.013467  4a 5a -> 10a 13a                                          
    0.015789  4a 5a -> 7a 16a                                           
   -0.015789  4a 5a -> 8a 17a                                           
   -0.029263  4a 5a -> 16a 17a                                          
    0.013156  4a 5a -> 19a 23a                                          
    0.010980  3a 4a -> 8a 9a                                            
    0.013279  3a 4a -> 10a 14a                                          
    0.015789  3a 4a -> 8a 15a                                           
   -0.015789  3a 4a -> 9a 16a                                           
   -0.029263  3a 4a -> 15a 16a                                          
   -0.012529  3a 4a -> 19a 22a                                          
    0.010156  2a 4a -> 6a 16a                                           
   -0.016179  2a 4a -> 16a 18a                                          
    0.010156  2a 3a -> 6a 15a                                           
   -0.016179  2a 3a -> 15a 18a                                          
    0.010156  2a 5a -> 6a 17a                                           
   -0.016179  2a 5a -> 17a 18a                                          
 
 Starting right-hand LR-CC iteration for root                      2 ...
 ======================================================================
 Norm of residual vector:     0.31915645      Convergence:   1.00000000
 CPU time [min]:     0.306                   Wall time [min]:     0.016
 
 Iteration  1  CI energy:   -53.96529458  Energy decrease:   0.52030820
 ======================================================================
 Norm of residual vector:     0.06847102      Convergence:   0.20907522
 CPU time [min]:     0.319                   Wall time [min]:     0.017
 
 Iteration  2  CI energy:   -54.03330937  Energy decrease:   0.06801479
 ======================================================================
 Norm of residual vector:     0.01576546      Convergence:   0.04945886
 CPU time [min]:     0.332                   Wall time [min]:     0.018
 
 Iteration  3  CI energy:   -54.03682911  Energy decrease:   0.00351973
 ======================================================================
 Norm of residual vector:     0.00315913      Convergence:   0.01144033
 CPU time [min]:     0.345                   Wall time [min]:     0.018
 
 Iteration  4  CI energy:   -54.03691803  Energy decrease:   0.00008892
 ======================================================================
 Norm of residual vector:     0.00057935      Convergence:   0.00181339
 CPU time [min]:     0.358                   Wall time [min]:     0.019
 
 Iteration  5  CI energy:   -54.03689485  Energy decrease:   0.00002318
 ======================================================================
 Norm of residual vector:     0.00019096      Convergence:   0.00045742
 CPU time [min]:     0.372                   Wall time [min]:     0.020
 
 Iteration  6  CI energy:   -54.03689264  Energy decrease:   0.00000222
 ======================================================================
 Norm of residual vector:     0.00010810      Convergence:   0.00026873
 CPU time [min]:     0.386                   Wall time [min]:     0.021
 
 Iteration  7  CI energy:   -54.03689261  Energy decrease:   0.00000002
 ======================================================================
 Norm of residual vector:     0.00005054      Convergence:   0.00011848
 CPU time [min]:     0.401                   Wall time [min]:     0.021
 
 Iteration  8  CI energy:   -54.03689266  Energy decrease:   0.00000005
 ======================================================================
 Norm of residual vector:     0.00001467      Convergence:   0.00003736
 CPU time [min]:     0.415                   Wall time [min]:     0.022
 
 Iteration  9  CI energy:   -54.03689259  Energy decrease:   0.00000008
 ======================================================================
 Norm of residual vector:     0.00000317      Convergence:   0.00000979
 CPU time [min]:     0.430                   Wall time [min]:     0.023
 
 Iteration 10  CI energy:   -54.03689264  Energy decrease:   0.00000006
 ======================================================================
 Norm of residual vector:     0.00000141      Convergence:   0.00000370
 CPU time [min]:     0.445                   Wall time [min]:     0.024
 
 Iteration 11  CI energy:   -54.03689265  Energy decrease:   0.00000001
 ======================================================================
 Norm of residual vector:     0.00000050      Convergence:   0.00000128
 CPU time [min]:     0.467                   Wall time [min]:     0.025
 
 Iteration 12  CI energy:   -54.03689266  Energy decrease:   4.5993E-09
 ======================================================================
 Norm of residual vector:     0.00000041      Convergence:   0.00000077
 CPU time [min]:     0.485                   Wall time [min]:     0.026
 
 Iteration 13  CI energy:   -54.03689266  Energy decrease:   1.5324E-09
 ======================================================================
 Norm of residual vector:     0.00000037      Convergence:   0.00000097
 CPU time [min]:     0.496                   Wall time [min]:     0.026
 
 Iteration 14  CI energy:   -54.03689266  Energy decrease:   1.4945E-09
 ======================================================================
 Norm of residual vector:     0.00000015      Convergence:   0.00000039
 CPU time [min]:     0.510                   Wall time [min]:     0.027
 
 Iteration 15  CI energy:   -54.03689266  Energy decrease:   1.4320E-09
 ======================================================================
 Norm of residual vector:     0.0000E+00      Convergence:   1.0612E-07
 CPU time [min]:     0.527                   Wall time [min]:     0.028
 
 Iteration 16  CI energy:   -54.03689266  Energy decrease:   7.5000E-10
 ======================================================================
 
 Iteration has converged in 16 steps.
 
 Final results:
 Total LR-CCSD energy [au]:          -54.036892656774
 Excitation energy [eV]:          12.2100
 Excitation energy [cm^-1]:    98480.50
 Absorption wavelength [nm]:     101.54
 Spin multiplicity:                     2
 
 
 
 Dominant CI coefficients
 Printing threshold:  1.00E-02
 
    0.012608  2a -> 10a                                                 
   -0.790948  4a -> 8a                                                  
   -0.090498  4a -> 16a                                                 
    0.395486  3a -> 9a                                                  
    0.045251  3a -> 15a                                                 
    0.395462  5a -> 7a                                                  
    0.045248  5a -> 17a                                                 
   -0.057107  2a 2b -> 8a 4b                                            
    0.072588  2a 2b -> 8a 8b                                            
   -0.034707  2a 2b -> 8a 16b                                           
    0.028555  2a 2b -> 9a 3b                                            
   -0.036295  2a 2b -> 9a 9b                                            
    0.017354  2a 2b -> 9a 15b                                           
    0.028553  2a 2b -> 7a 5b                                            
   -0.036293  2a 2b -> 7a 7b                                            
    0.017353  2a 2b -> 7a 17b                                           
   -0.028859  4a 2b -> 6a 4b                                            
    0.029025  4a 2b -> 6a 8b                                            
    0.051206  4a 2b -> 8a 6b                                            
   -0.011714  4a 2b -> 8a 10b                                           
    0.039984  4a 2b -> 8a 18b                                           
   -0.016846  4a 2b -> 8a 19b                                           
    0.014430  3a 2b -> 6a 3b                                            
   -0.014513  3a 2b -> 6a 9b                                            
   -0.013753  3a 2b -> 8a 14b                                           
    0.016501  3a 2b -> 8a 22b                                           
   -0.025604  3a 2b -> 9a 6b                                            
   -0.019993  3a 2b -> 9a 18b                                           
    0.014429  5a 2b -> 6a 5b                                            
   -0.014512  5a 2b -> 6a 7b                                            
   -0.013753  5a 2b -> 8a 13b                                           
    0.016501  5a 2b -> 8a 23b                                           
   -0.025602  5a 2b -> 7a 6b                                            
   -0.019992  5a 2b -> 7a 18b                                           
   -0.055573  3a 5a -> 7a 9a                                            
   -0.032351  3a 5a -> 7a 15a                                           
    0.032353  3a 5a -> 9a 17a                                           
    0.027787  4a 5a -> 7a 8a                                            
   -0.010855  4a 5a -> 6a 13a                                           
   -0.033118  4a 5a -> 7a 16a                                           
   -0.065471  4a 5a -> 8a 17a                                           
    0.027786  3a 4a -> 8a 9a                                            
    0.010855  3a 4a -> 6a 14a                                           
    0.065471  3a 4a -> 8a 15a                                           
    0.033120  3a 4a -> 9a 16a                                           
    0.032227  2a 4a -> 6a 8a                                            
   -0.011984  2a 4a -> 8a 10a                                           
   -0.035208  2a 4a -> 8a 18a                                           
   -0.010867  2a 4a -> 8a 19a                                           
   -0.016114  2a 3a -> 6a 9a                                            
    0.017604  2a 3a -> 9a 18a                                           
   -0.016113  2a 5a -> 6a 7a                                            
    0.017603  2a 5a -> 7a 18a                                           
 
 Starting right-hand LR-CC iteration for root                      3 ...
 ======================================================================
 Norm of residual vector:     0.31915645      Convergence:   1.00000000
 CPU time [min]:     0.539                   Wall time [min]:     0.029
 
 Iteration  1  CI energy:   -53.96529458  Energy decrease:   0.52030820
 ======================================================================
 Norm of residual vector:     0.06849928      Convergence:   0.20906224
 CPU time [min]:     0.552                   Wall time [min]:     0.029
 
 Iteration  2  CI energy:   -54.03330609  Energy decrease:   0.06801150
 ======================================================================
 Norm of residual vector:     0.01576554      Convergence:   0.04948236
 CPU time [min]:     0.565                   Wall time [min]:     0.030
 
 Iteration  3  CI energy:   -54.03682949  Energy decrease:   0.00352340
 ======================================================================
 Norm of residual vector:     0.00315287      Convergence:   0.01143304
 CPU time [min]:     0.579                   Wall time [min]:     0.031
 
 Iteration  4  CI energy:   -54.03691795  Energy decrease:   0.00008846
 ======================================================================
 Norm of residual vector:     0.00058112      Convergence:   0.00181588
 CPU time [min]:     0.592                   Wall time [min]:     0.031
 
 Iteration  5  CI energy:   -54.03689488  Energy decrease:   0.00002307
 ======================================================================
 Norm of residual vector:     0.00019957      Convergence:   0.00048742
 CPU time [min]:     0.608                   Wall time [min]:     0.032
 
 Iteration  6  CI energy:   -54.03689267  Energy decrease:   0.00000221
 ======================================================================
 Norm of residual vector:     0.00010906      Convergence:   0.00027285
 CPU time [min]:     0.621                   Wall time [min]:     0.033
 
 Iteration  7  CI energy:   -54.03689261  Energy decrease:   0.00000006
 ======================================================================
 Norm of residual vector:     0.00005087      Convergence:   0.00012187
 CPU time [min]:     0.634                   Wall time [min]:     0.034
 
 Iteration  8  CI energy:   -54.03689266  Energy decrease:   0.00000005
 ======================================================================
 Norm of residual vector:     0.00002174      Convergence:   0.00005679
 CPU time [min]:     0.647                   Wall time [min]:     0.034
 
 Iteration  9  CI energy:   -54.03689260  Energy decrease:   0.00000005
 ======================================================================
 Norm of residual vector:     0.00000829      Convergence:   0.00002037
 CPU time [min]:     0.661                   Wall time [min]:     0.035
 
 Iteration 10  CI energy:   -54.03689261  Energy decrease:   0.00000001
 ======================================================================
 Norm of residual vector:     0.00000171      Convergence:   0.00000518
 CPU time [min]:     0.675                   Wall time [min]:     0.036
 
 Iteration 11  CI energy:   -54.03689265  Energy decrease:   0.00000004
 ======================================================================
 Norm of residual vector:     0.00000033      Convergence:   0.00000110
 CPU time [min]:     0.693                   Wall time [min]:     0.037
 
 Iteration 12  CI energy:   -54.03689266  Energy decrease:   0.00000001
 ======================================================================
 Norm of residual vector:     0.00000018      Convergence:   0.00000039
 CPU time [min]:     0.766                   Wall time [min]:     0.041
 
 Iteration 13  CI energy:   -54.03689266  Energy decrease:   1.1491E-09
 ======================================================================
 Norm of residual vector:     0.00000016      Convergence:   0.00000030
 CPU time [min]:     0.782                   Wall time [min]:     0.041
 
 Iteration 14  CI energy:   -54.03689266  Energy decrease:   9.5799E-10
 ======================================================================
 Norm of residual vector:     0.0000E+00      Convergence:   2.9499E-07
 CPU time [min]:     0.797                   Wall time [min]:     0.042
 
 Iteration 15  CI energy:   -54.03689266  Energy decrease:   7.2635E-10
 ======================================================================
 
 Iteration has converged in 15 steps.
 
 Final results:
 Total LR-CCSD energy [au]:          -54.036892656331
 Excitation energy [eV]:          12.2100
 Excitation energy [cm^-1]:    98480.50
 Absorption wavelength [nm]:     101.54
 Spin multiplicity:                     2
 
 
 
 Dominant CI coefficients
 Printing threshold:  1.00E-02
 
   -0.010996  2a -> 12a                                                 
    0.395476  4a -> 8a                                                  
    0.045249  4a -> 16a                                                 
   -0.790948  3a -> 9a                                                  
   -0.090498  3a -> 15a                                                 
    0.395472  5a -> 7a                                                  
    0.045249  5a -> 17a                                                 
    0.028554  2a 2b -> 8a 4b                                            
   -0.036294  2a 2b -> 8a 8b                                            
    0.017354  2a 2b -> 8a 16b                                           
   -0.057107  2a 2b -> 9a 3b                                            
    0.072588  2a 2b -> 9a 9b                                            
   -0.034707  2a 2b -> 9a 15b                                           
    0.028554  2a 2b -> 7a 5b                                            
   -0.036294  2a 2b -> 7a 7b                                            
    0.017354  2a 2b -> 7a 17b                                           
    0.014429  4a 2b -> 6a 4b                                            
   -0.014512  4a 2b -> 6a 8b                                            
   -0.025603  4a 2b -> 8a 6b                                            
   -0.019992  4a 2b -> 8a 18b                                           
   -0.013753  4a 2b -> 9a 14b                                           
    0.016501  4a 2b -> 9a 22b                                           
   -0.028859  3a 2b -> 6a 3b                                            
    0.029025  3a 2b -> 6a 9b                                            
    0.051206  3a 2b -> 9a 6b                                            
    0.010381  3a 2b -> 9a 12b                                           
    0.039984  3a 2b -> 9a 18b                                           
    0.016260  3a 2b -> 9a 21b                                           
    0.014429  5a 2b -> 6a 5b                                            
   -0.014512  5a 2b -> 6a 7b                                            
   -0.013753  5a 2b -> 9a 11b                                           
    0.016501  5a 2b -> 9a 20b                                           
   -0.025603  5a 2b -> 7a 6b                                            
   -0.019992  5a 2b -> 7a 18b                                           
    0.027787  3a 5a -> 7a 9a                                            
   -0.010855  3a 5a -> 6a 11a                                           
   -0.033118  3a 5a -> 7a 15a                                           
   -0.065471  3a 5a -> 9a 17a                                           
   -0.055573  4a 5a -> 7a 8a                                            
   -0.032352  4a 5a -> 7a 16a                                           
    0.032352  4a 5a -> 8a 17a                                           
    0.027786  3a 4a -> 8a 9a                                            
   -0.010855  3a 4a -> 6a 14a                                           
   -0.033119  3a 4a -> 8a 15a                                           
   -0.065471  3a 4a -> 9a 16a                                           
   -0.016114  2a 4a -> 6a 8a                                            
    0.017604  2a 4a -> 8a 18a                                           
    0.032227  2a 3a -> 6a 9a                                            
    0.010451  2a 3a -> 9a 12a                                           
   -0.035208  2a 3a -> 9a 18a                                           
   -0.016113  2a 5a -> 6a 7a                                            
    0.017604  2a 5a -> 7a 18a                                           
 
 Starting right-hand LR-CC iteration for root                      4 ...
 ======================================================================
 Norm of residual vector:     0.31915645      Convergence:   1.00000000
 CPU time [min]:     0.809                   Wall time [min]:     0.043
 
 Iteration  1  CI energy:   -53.96529458  Energy decrease:   0.52030820
 ======================================================================
 Norm of residual vector:     0.06852826      Convergence:   0.20905857
 CPU time [min]:     0.820                   Wall time [min]:     0.043
 
 Iteration  2  CI energy:   -54.03330420  Energy decrease:   0.06800962
 ======================================================================
 Norm of residual vector:     0.01577155      Convergence:   0.04949281
 CPU time [min]:     0.833                   Wall time [min]:     0.044
 
 Iteration  3  CI energy:   -54.03682945  Energy decrease:   0.00352525
 ======================================================================
 Norm of residual vector:     0.00315178      Convergence:   0.01143371
 CPU time [min]:     0.845                   Wall time [min]:     0.045
 
 Iteration  4  CI energy:   -54.03691796  Energy decrease:   0.00008851
 ======================================================================
 Norm of residual vector:     0.00058077      Convergence:   0.00181368
 CPU time [min]:     0.858                   Wall time [min]:     0.045
 
 Iteration  5  CI energy:   -54.03689488  Energy decrease:   0.00002308
 ======================================================================
 Norm of residual vector:     0.00019232      Convergence:   0.00046381
 CPU time [min]:     0.871                   Wall time [min]:     0.046
 
 Iteration  6  CI energy:   -54.03689264  Energy decrease:   0.00000224
 ======================================================================
 Norm of residual vector:     0.00010142      Convergence:   0.00026297
 CPU time [min]:     0.884                   Wall time [min]:     0.047
 
 Iteration  7  CI energy:   -54.03689263  Energy decrease:   0.00000001
 ======================================================================
 Norm of residual vector:     0.00004664      Convergence:   0.00011168
 CPU time [min]:     0.897                   Wall time [min]:     0.047
 
 Iteration  8  CI energy:   -54.03689265  Energy decrease:   0.00000002
 ======================================================================
 Norm of residual vector:     0.00001529      Convergence:   0.00003981
 CPU time [min]:     0.910                   Wall time [min]:     0.048
 
 Iteration  9  CI energy:   -54.03689259  Energy decrease:   0.00000006
 ======================================================================
 Norm of residual vector:     0.00000695      Convergence:   0.00001617
 CPU time [min]:     0.924                   Wall time [min]:     0.049
 
 Iteration 10  CI energy:   -54.03689262  Energy decrease:   0.00000003
 ======================================================================
 Norm of residual vector:     0.00000182      Convergence:   0.00000547
 CPU time [min]:     0.938                   Wall time [min]:     0.050
 
 Iteration 11  CI energy:   -54.03689265  Energy decrease:   0.00000003
 ======================================================================
 Norm of residual vector:     0.00000064      Convergence:   0.00000144
 CPU time [min]:     0.952                   Wall time [min]:     0.050
 
 Iteration 12  CI energy:   -54.03689266  Energy decrease:   0.00000001
 ======================================================================
 Norm of residual vector:     0.00000066      Convergence:   0.00000147
 CPU time [min]:     0.982                   Wall time [min]:     0.052
 
 Iteration 13  CI energy:   -54.03689266  Energy decrease:   2.1703E-09
 ======================================================================
 Norm of residual vector:     0.00000039      Convergence:   0.00000105
 CPU time [min]:     0.997                   Wall time [min]:     0.053
 
 Iteration 14  CI energy:   -54.03689266  Energy decrease:   3.0984E-09
 ======================================================================
 Norm of residual vector:     0.00000015      Convergence:   0.00000036
 CPU time [min]:     1.012                   Wall time [min]:     0.054
 
 Iteration 15  CI energy:   -54.03689266  Energy decrease:   9.4591E-10
 ======================================================================
 Norm of residual vector:     0.0000E+00      Convergence:   1.0353E-07
 CPU time [min]:     1.027                   Wall time [min]:     0.054
 
 Iteration 16  CI energy:   -54.03689266  Energy decrease:   6.9970E-10
 ======================================================================
 
 Iteration has converged in 16 steps.
 
 Final results:
 Total LR-CCSD energy [au]:          -54.036892656778
 Excitation energy [eV]:          12.2100
 Excitation energy [cm^-1]:    98480.50
 Absorption wavelength [nm]:     101.54
 Spin multiplicity:                     2
 
 Dominant CI coefficients
 Printing threshold:  1.00E-02
 
   -0.010842  2a -> 12a                                                 
   -0.395464  4a -> 8a                                                  
   -0.045248  4a -> 16a                                                 
   -0.395484  3a -> 9a                                                  
   -0.045250  3a -> 15a                                                 
    0.790948  5a -> 7a                                                  
    0.090498  5a -> 17a                                                 
   -0.028553  2a 2b -> 8a 4b                                            
    0.036293  2a 2b -> 8a 8b                                            
   -0.017353  2a 2b -> 8a 16b                                           
   -0.028554  2a 2b -> 9a 3b                                            
    0.036295  2a 2b -> 9a 9b                                            
   -0.017354  2a 2b -> 9a 15b                                           
    0.057107  2a 2b -> 7a 5b                                            
   -0.072588  2a 2b -> 7a 7b                                            
    0.034707  2a 2b -> 7a 17b                                           
   -0.014429  4a 2b -> 6a 4b                                            
    0.014512  4a 2b -> 6a 8b                                            
    0.025602  4a 2b -> 8a 6b                                            
    0.019992  4a 2b -> 8a 18b                                           
    0.013753  4a 2b -> 7a 13b                                           
   -0.016501  4a 2b -> 7a 23b                                           
   -0.014430  3a 2b -> 6a 3b                                            
    0.014513  3a 2b -> 6a 9b                                            
    0.025604  3a 2b -> 9a 6b                                            
    0.019993  3a 2b -> 9a 18b                                           
    0.013753  3a 2b -> 7a 11b                                           
   -0.016501  3a 2b -> 7a 20b                                           
    0.028859  5a 2b -> 6a 5b                                            
   -0.029025  5a 2b -> 6a 7b                                            
   -0.051206  5a 2b -> 7a 6b                                            
   -0.039984  5a 2b -> 7a 18b                                           
   -0.011318  5a 2b -> 7a 19b                                           
    0.012917  5a 2b -> 7a 21b                                           
   -0.027786  3a 5a -> 7a 9a                                            
   -0.010855  3a 5a -> 6a 11a                                           
   -0.065471  3a 5a -> 7a 15a                                           
   -0.033119  3a 5a -> 9a 17a                                           
   -0.027787  4a 5a -> 7a 8a                                            
   -0.010855  4a 5a -> 6a 13a                                           
   -0.065471  4a 5a -> 7a 16a                                           
   -0.033118  4a 5a -> 8a 17a                                           
    0.055573  3a 4a -> 8a 9a                                            
    0.032351  3a 4a -> 8a 15a                                           
   -0.032353  3a 4a -> 9a 16a                                           
    0.016113  2a 4a -> 6a 8a                                            
   -0.017603  2a 4a -> 8a 18a                                           
    0.016114  2a 3a -> 6a 9a                                            
   -0.017604  2a 3a -> 9a 18a                                           
   -0.032227  2a 5a -> 6a 7a                                            
    0.010305  2a 5a -> 7a 12a                                           
    0.035208  2a 5a -> 7a 18a                                           

 ************************ 2018-06-30 17:42:59 *************************
 Executing goldstone...

 Generation of CC equations in terms of H and T...
 Generation of antisymmetrized Goldstone diagrams...
 Number of diagrams in T^1 equations:    15
 Number of diagrams in T^2 equations:    37
 Number of diagrams in T^3 equations:    47
 Translation of diagrams to factorized equations...
 Optimizing intermediate calculation...
 Optimizing right-hand EOMCC calculation...
 Number of floating-point operations per iteration step:   5.6683E+06
 Probable CPU time per iteration step (hours):      0.00
 Required memory (Mbytes):      19.5
 Number of intermediates:                                 154
 Number of intermediates to be stored:                     61
 Length of intermediate file (Mbytes):       0.8

 ************************ 2018-06-30 17:43:01 *************************
 Executing xmrcc...

 **********************************************************************
 CC(                     3 ) calculation 
 
 
 Allocation of 100.0 Mbytes of memory...
 Number of spinorbitals:                    44
 Number of alpha electrons:                        4
 Number of beta electrons:                         1
 z-component of spin:  1.5
 Spatial symmetry:                      5
 Convergence criterion:  1.0E-07
[...]
 Absorption wavelength [nm]:     101.24
 Spin multiplicity:                     2
 
 
 
 Dominant CI coefficients
 Printing threshold:  1.00E-02
 
    0.012519  2a -> 10a                                                 
   -0.786463  4a -> 8a                                                  
   -0.090895  4a -> 16a                                                 
    0.393244  3a -> 9a                                                  
    0.045449  3a -> 15a                                                 
    0.393219  5a -> 7a                                                  
    0.045446  5a -> 17a                                                 
   -0.060872  2a 2b -> 8a 4b                                            
    0.076277  2a 2b -> 8a 8b                                            
   -0.034592  2a 2b -> 8a 16b                                           
    0.030437  2a 2b -> 9a 3b                                            
   -0.038140  2a 2b -> 9a 9b                                            
    0.017297  2a 2b -> 9a 15b                                           
    0.030435  2a 2b -> 7a 5b                                            
   -0.038137  2a 2b -> 7a 7b                                            
    0.017295  2a 2b -> 7a 17b                                           
   -0.034240  4a 2b -> 6a 4b                                            
    0.033778  4a 2b -> 6a 8b                                            
    0.058300  4a 2b -> 8a 6b                                            
   -0.012902  4a 2b -> 8a 10b                                           
    0.041654  4a 2b -> 8a 18b                                           
   -0.017193  4a 2b -> 8a 19b                                           
    0.017121  3a 2b -> 6a 3b                                            
   -0.016890  3a 2b -> 6a 9b                                            
   -0.014962  3a 2b -> 8a 14b                                           
    0.016928  3a 2b -> 8a 22b                                           
   -0.029151  3a 2b -> 9a 6b                                            
   -0.020828  3a 2b -> 9a 18b                                           
    0.017120  5a 2b -> 6a 5b                                            
   -0.016889  5a 2b -> 6a 7b                                            
   -0.014961  5a 2b -> 8a 13b                                           
    0.016928  5a 2b -> 8a 23b                                           
   -0.029149  5a 2b -> 7a 6b                                            
   -0.020826  5a 2b -> 7a 18b                                           
   -0.065215  3a 5a -> 7a 9a                                            
   -0.034438  3a 5a -> 7a 15a                                           
    0.034440  3a 5a -> 9a 17a                                           
    0.032609  4a 5a -> 7a 8a                                            
   -0.012420  4a 5a -> 6a 13a                                           
   -0.034845  4a 5a -> 7a 16a                                           
   -0.069285  4a 5a -> 8a 17a                                           
    0.032607  3a 4a -> 8a 9a                                            
    0.012420  3a 4a -> 6a 14a                                           
    0.069285  3a 4a -> 8a 15a                                           
    0.034848  3a 4a -> 9a 16a                                           
    0.036047  2a 4a -> 6a 8a                                            
   -0.012723  2a 4a -> 8a 10a                                           
   -0.035956  2a 4a -> 8a 18a                                           
   -0.010570  2a 4a -> 8a 19a                                           
   -0.018024  2a 3a -> 6a 9a                                            
    0.017979  2a 3a -> 9a 18a                                           
   -0.018023  2a 5a -> 6a 7a                                            
    0.017978  2a 5a -> 7a 18a                                           
    0.010259  3a 5a 2b -> 7a 9a 6b                                      
    0.010505  3a 4a 5a -> 7a 9a 16a                                     
 
 Starting right-hand LR-CC iteration for root                      3 ...
 ======================================================================
 Norm of residual vector:     0.00715801      Convergence:   1.00000000
 CPU time [min]:     5.885                   Wall time [min]:     0.301
 
 Iteration  1  CI energy:   -54.03714612  Energy decrease:   0.45005825
 ======================================================================
 Norm of residual vector:     0.00119398      Convergence:   0.00129075
 CPU time [min]:     6.201                   Wall time [min]:     0.317
 
 Iteration  2  CI energy:   -54.03714962  Energy decrease:   0.00000350
 ======================================================================
 Norm of residual vector:     0.00027181      Convergence:   0.00026308
 CPU time [min]:     6.517                   Wall time [min]:     0.332
 
 Iteration  3  CI energy:   -54.03714663  Energy decrease:   0.00000299
 ======================================================================
 Norm of residual vector:     0.00008502      Convergence:   0.00009169
 CPU time [min]:     6.834                   Wall time [min]:     0.348
 
 Iteration  4  CI energy:   -54.03714116  Energy decrease:   0.00000547
 ======================================================================
 Norm of residual vector:     0.00003938      Convergence:   0.00004233
 CPU time [min]:     7.157                   Wall time [min]:     0.364
 
 Iteration  5  CI energy:   -54.03713984  Energy decrease:   0.00000132
 ======================================================================
 Norm of residual vector:     0.00001215      Convergence:   0.00001738
 CPU time [min]:     7.553                   Wall time [min]:     0.389
 
 Iteration  6  CI energy:   -54.03713928  Energy decrease:   0.00000056
 ======================================================================
 Norm of residual vector:     0.00000430      Convergence:   0.00000525
 CPU time [min]:     7.897                   Wall time [min]:     0.406
 
 Iteration  7  CI energy:   -54.03713921  Energy decrease:   0.00000007
 ======================================================================
 Norm of residual vector:     0.00000149      Convergence:   0.00000179
 CPU time [min]:     8.217                   Wall time [min]:     0.422
 
 Iteration  8  CI energy:   -54.03713916  Energy decrease:   0.00000005
 ======================================================================
 Norm of residual vector:     0.00000057      Convergence:   0.00000062
 CPU time [min]:     8.539                   Wall time [min]:     0.438
 
 Iteration  9  CI energy:   -54.03713916  Energy decrease:   2.7513E-09
 ======================================================================
 Norm of residual vector:     0.00000022      Convergence:   0.00000027
 CPU time [min]:     8.861                   Wall time [min]:     0.455
 
 Iteration 10  CI energy:   -54.03713916  Energy decrease:   2.5711E-09
 ======================================================================
 Norm of residual vector:     0.00000009      Convergence:   0.00000015
 CPU time [min]:     9.190                   Wall time [min]:     0.471
 
 Iteration 11  CI energy:   -54.03713916  Energy decrease:   4.2981E-11
 ======================================================================
 
 Iteration has converged in 11 steps.
 
 Final results:
 Total LR-CCSDTQP energy [au]:       -54.037139160702
 Excitation energy [eV]:          12.2469
 Excitation energy [cm^-1]:    98777.90
 Absorption wavelength [nm]:     101.24
 Spin multiplicity:                     2
 
 
 
 Dominant CI coefficients
 Printing threshold:  1.00E-02
 
    0.010918  2a -> 12a                                                 
   -0.393238  4a -> 8a                                                  
   -0.045448  4a -> 16a                                                 
    0.786463  3a -> 9a                                                  
    0.090895  3a -> 15a                                                 
   -0.393225  5a -> 7a                                                  
   -0.045447  5a -> 17a                                                 
   -0.030436  2a 2b -> 8a 4b                                            
    0.038139  2a 2b -> 8a 8b                                            
   -0.017296  2a 2b -> 8a 16b                                           
    0.060872  2a 2b -> 9a 3b                                            
   -0.076277  2a 2b -> 9a 9b                                            
    0.034592  2a 2b -> 9a 15b                                           
   -0.030435  2a 2b -> 7a 5b                                            
    0.038138  2a 2b -> 7a 7b                                            
   -0.017296  2a 2b -> 7a 17b                                           
   -0.017121  4a 2b -> 6a 4b                                            
    0.016889  4a 2b -> 6a 8b                                            
    0.029150  4a 2b -> 8a 6b                                            
    0.020827  4a 2b -> 8a 18b                                           
    0.014961  4a 2b -> 9a 14b                                           
   -0.016928  4a 2b -> 9a 22b                                           
    0.034240  3a 2b -> 6a 3b                                            
   -0.033778  3a 2b -> 6a 9b                                            
   -0.058300  3a 2b -> 9a 6b                                            
   -0.011434  3a 2b -> 9a 12b                                           
   -0.041654  3a 2b -> 9a 18b                                           
   -0.016595  3a 2b -> 9a 21b                                           
   -0.017120  5a 2b -> 6a 5b                                            
    0.016889  5a 2b -> 6a 7b                                            
    0.014961  5a 2b -> 9a 11b                                           
   -0.016928  5a 2b -> 9a 20b                                           
    0.029149  5a 2b -> 7a 6b                                            
    0.020827  5a 2b -> 7a 18b                                           
   -0.032608  3a 5a -> 7a 9a                                            
    0.012420  3a 5a -> 6a 11a                                           
    0.034846  3a 5a -> 7a 15a                                           
    0.069285  3a 5a -> 9a 17a                                           
    0.065215  4a 5a -> 7a 8a                                            
    0.034438  4a 5a -> 7a 16a                                           
   -0.034440  4a 5a -> 8a 17a                                           
   -0.032607  3a 4a -> 8a 9a                                            
    0.012420  3a 4a -> 6a 14a                                           
    0.034847  3a 4a -> 8a 15a                                           
    0.069285  3a 4a -> 9a 16a                                           
    0.018024  2a 4a -> 6a 8a                                            
   -0.017979  2a 4a -> 8a 18a                                           
   -0.036047  2a 3a -> 6a 9a                                            
   -0.011096  2a 3a -> 9a 12a                                           
    0.035956  2a 3a -> 9a 18a                                           
    0.018023  2a 5a -> 6a 7a                                            
   -0.017978  2a 5a -> 7a 18a                                           
   -0.010259  4a 5a 2b -> 7a 8a 6b                                      
    0.010505  3a 4a 5a -> 7a 8a 15a                                     
 
 Starting right-hand LR-CC iteration for root                      4 ...
 ======================================================================
 Norm of residual vector:     0.00715801      Convergence:   1.00000000
 CPU time [min]:     9.511                   Wall time [min]:     0.487
 
 Iteration  1  CI energy:   -54.03714612  Energy decrease:   0.45005825
 ======================================================================
 Norm of residual vector:     0.00119398      Convergence:   0.00129075
 CPU time [min]:     9.832                   Wall time [min]:     0.503
 
 Iteration  2  CI energy:   -54.03714962  Energy decrease:   0.00000350
 ======================================================================
 Norm of residual vector:     0.00027181      Convergence:   0.00026308
 CPU time [min]:    10.157                   Wall time [min]:     0.519
 
 Iteration  3  CI energy:   -54.03714663  Energy decrease:   0.00000299
 ======================================================================
 Norm of residual vector:     0.00008502      Convergence:   0.00009169
 CPU time [min]:    10.480                   Wall time [min]:     0.536
 
 Iteration  4  CI energy:   -54.03714116  Energy decrease:   0.00000547
 ======================================================================
 Norm of residual vector:     0.00003938      Convergence:   0.00004233
 CPU time [min]:    11.393                   Wall time [min]:     0.658
 
 Iteration  5  CI energy:   -54.03713984  Energy decrease:   0.00000132
 ======================================================================
 Norm of residual vector:     0.00001215      Convergence:   0.00001738
 CPU time [min]:    11.988                   Wall time [min]:     0.689
 
 Iteration  6  CI energy:   -54.03713928  Energy decrease:   0.00000056
 ======================================================================
 Norm of residual vector:     0.00000430      Convergence:   0.00000525
 CPU time [min]:    12.568                   Wall time [min]:     0.720
 
 Iteration  7  CI energy:   -54.03713921  Energy decrease:   0.00000007
 ======================================================================
 Norm of residual vector:     0.00000149      Convergence:   0.00000179
 CPU time [min]:    13.129                   Wall time [min]:     0.749
 
 Iteration  8  CI energy:   -54.03713916  Energy decrease:   0.00000005
 ======================================================================
 Norm of residual vector:     0.00000057      Convergence:   0.00000061
 CPU time [min]:    13.972                   Wall time [min]:     0.819
 
 Iteration  9  CI energy:   -54.03713916  Energy decrease:   2.7465E-09
 ======================================================================
 Norm of residual vector:     0.00000022      Convergence:   0.00000027
 CPU time [min]:    14.798                   Wall time [min]:     0.862
 
 Iteration 10  CI energy:   -54.03713916  Energy decrease:   2.5822E-09
 ======================================================================
 Norm of residual vector:     0.00000008      Convergence:   0.00000014
 CPU time [min]:    15.355                   Wall time [min]:     0.891
 
 Iteration 11  CI energy:   -54.03713916  Energy decrease:   6.0304E-11
 ======================================================================
 
 Iteration has converged in 11 steps.
 
 Final results:
 Total LR-CCSDTQP energy [au]:       -54.037139160694
 Excitation energy [eV]:          12.2469
 Excitation energy [cm^-1]:    98777.90
 Absorption wavelength [nm]:     101.24
 Spin multiplicity:                     2
 
 Dominant CI coefficients
 Printing threshold:  1.00E-02
 
   -0.010765  2a -> 12a                                                 
   -0.393226  4a -> 8a                                                  
   -0.045447  4a -> 16a                                                 
   -0.393237  3a -> 9a                                                  
   -0.045448  3a -> 15a                                                 
    0.786463  5a -> 7a                                                  
    0.090895  5a -> 17a                                                 
   -0.030435  2a 2b -> 8a 4b                                            
    0.038138  2a 2b -> 8a 8b                                            
   -0.017296  2a 2b -> 8a 16b                                           
   -0.030436  2a 2b -> 9a 3b                                            
    0.038139  2a 2b -> 9a 9b                                            
   -0.017296  2a 2b -> 9a 15b                                           
    0.060872  2a 2b -> 7a 5b                                            
   -0.076277  2a 2b -> 7a 7b                                            
    0.034592  2a 2b -> 7a 17b                                           
   -0.017120  4a 2b -> 6a 4b                                            
    0.016889  4a 2b -> 6a 8b                                            
    0.029149  4a 2b -> 8a 6b                                            
    0.020827  4a 2b -> 8a 18b                                           
    0.014961  4a 2b -> 7a 13b                                           
   -0.016928  4a 2b -> 7a 23b                                           
   -0.017120  3a 2b -> 6a 3b                                            
    0.016889  3a 2b -> 6a 9b                                            
    0.029150  3a 2b -> 9a 6b                                            
    0.020827  3a 2b -> 9a 18b                                           
    0.014961  3a 2b -> 7a 11b                                           
   -0.016928  3a 2b -> 7a 20b                                           
    0.034240  5a 2b -> 6a 5b                                            
   -0.033778  5a 2b -> 6a 7b                                            
   -0.058300  5a 2b -> 7a 6b                                            
    0.010913  5a 2b -> 7a 12b                                           
   -0.041654  5a 2b -> 7a 18b                                           
   -0.011551  5a 2b -> 7a 19b                                           
    0.013183  5a 2b -> 7a 21b                                           
   -0.032607  3a 5a -> 7a 9a                                            
   -0.012420  3a 5a -> 6a 11a                                           
   -0.069285  3a 5a -> 7a 15a                                           
   -0.034847  3a 5a -> 9a 17a                                           
   -0.032608  4a 5a -> 7a 8a                                            
   -0.012420  4a 5a -> 6a 13a                                           
   -0.069285  4a 5a -> 7a 16a                                           
   -0.034846  4a 5a -> 8a 17a                                           
    0.065215  3a 4a -> 8a 9a                                            
    0.034439  3a 4a -> 8a 15a                                           
   -0.034440  3a 4a -> 9a 16a                                           
    0.018023  2a 4a -> 6a 8a                                            
   -0.017978  2a 4a -> 8a 18a                                           
    0.018024  2a 3a -> 6a 9a                                            
   -0.017979  2a 3a -> 9a 18a                                           
   -0.036047  2a 5a -> 6a 7a                                            
    0.010941  2a 5a -> 7a 12a                                           
    0.035956  2a 5a -> 7a 18a                                           
   -0.010259  3a 4a 2b -> 8a 9a 6b                                      
    0.010505  3a 4a 5a -> 8a 9a 17a                                     
 
 ************************ 2018-06-30 17:44:45 *************************
                      Normal termination of mrcc.
 **********************************************************************
--- SharcNET Job Epilogue ---
Job completed successfully.
               jobid: 1549833
               resid: 3029184
         exit status: 0
      allocated time: 130.972
           user time: 1216.6
         system time: 498.19
peak rss=152420352; peak vsz=152420352 (bytes)
atime=130.972; utime=1216.6; stime=498.19; exit=0
