 --invoking executable--
/home/nike/cfour_v2.00beta/bin/xjoda


   *************************************************************************
         <<<     CCCCCC     CCCCCC   |||     CCCCCC     CCCCCC   >>>
       <<<      CCC        CCC       |||    CCC        CCC         >>>
      <<<      CCC        CCC        |||   CCC        CCC            >>>
    <<<        CCC        CCC        |||   CCC        CCC              >>>
      <<<      CCC        CCC        |||   CCC        CCC            >>>
       <<<      CCC        CCC       |||    CCC        CCC         >>>
         <<<     CCCCCC     CCCCCC   |||     CCCCCC     CCCCCC   >>>
   *************************************************************************

     ****************************************************************
     * CFOUR Coupled-Cluster techniques for Computational Chemistry *
     ****************************************************************
 

   Department of Chemistry                Institut fuer Physikalische Chemie
   University of Texas at Austin          Universitaet Mainz
   Austin, TX  78712, USA                 D-55099 Mainz, Germany
 
                       Version 2.00beta
 
                     wob104                                            
                     Fri Jul  6 01:02:43 EDT 2018                      
                     integer*8 version is running
 
********************************************************************************
*                          Input from ZMAT file                                *
********************************************************************************
TITLE                                                                           
N                                                                               
                                                                                
*ACES2(CALC=CCSD                                                                
FROZEN_CORE=ON                                                                  
#DROPMO=1                                                                       
INPUT_MRCC=OFF                                                                  
CC_PROG=MRCC                                                                    
XFORM_TOL=18                                                                    
SAVE_INTS=ON                                                                    
SCF_EXPORDER=6                                                                  
SCF_EXPSTART=5                                                                  
#SCF_DAMPING=1000                                                               
SCF_EXTRAPOLATION=ON                                                            
SCF_CONV=10                                                                     
SCF_MAXCYC=9999                                                                 
CC_CONV=10                                                                      
CC_MAXCYC=999                                                                   
T3_EXTRAPOL=ON                                                                  
REFERENCE=ROHF                                                                  
CHARGE=+0                                                                       
MULT=4                                                                          
ABCDTYPE=STANDARD                                                               
OCCUPATION=2-1-1-0-1-0-0-0/2-0-0-0-0-0-0-0                                      
MEM=20                                                                          
MEM_UNIT=GB                                                                     
BASIS=SPECIAL)                                                                  
                                                                                
N:aVQZ-EMSL                                                                     
                                                                                
********************************************************************************
  @GTFLGS-W, Keyword #DROPMO not known and is ignored.
  @GTFLGS-W, Keyword #SCF_DAMPING not known and is ignored.
    -------------------------------------------------------------------
                    CFOUR Control Parameters 
    -------------------------------------------------------------------
        External           Internal           Value            Units
          Name               Name
    -------------------------------------------------------------------
       ABCDTYPE             IABCDT         STANDARD     [  0]   ***   
       ANHARMONIC           IANHAR         OFF          [  0]   ***   
       ANH_ALGORIT          IANALG         STANDARD     [  0]   ***   
       ANH_DERIVAT          IANDER         SECOND       [  1]   ***   
       ANH_STEPSIZ          ICUBST             50000          x 10-6  
       ANH_SYMMETR          IANHSM         ABELIAN      [  0]   ***   
       AO_LADDERS           IAOLAD         SINGLEPASS   [  1]   ***   
       BASIS                IBASIS         SPECIAL      [  0]   ***   
       BREIT                IBREIT         OFF          [  0]   ***   
       BRUCK_CONV           IBRTOL          10D-  4             ***   
       BRUECKNER            IBRKNR             OFF      [  0]   ***   
       BUFFERSIZE           IBUFFS            600               ***   
       CACHE_RECS           ICHREC             10               ***   
       CALCLEVEL            ICLLVL           CCSD       [ 10]   ***   
       CCORBOPT             ICCORB             OFF      [  0] x 0.01  
       CC_CONV              ICCCNV          10D- 10             ***   
       CC_EXPORDER          ICCEOR              5               ***   
       CC_EXTRAPOL          ICCEXT             DIIS     [  1]   ***   
       CC_MAXCYC            ICCCYC            999              cycles 
       CC_PROGRAM           ICCPRO         MRCC         [  2]   ***   
       CHARGE               ICHRGE              0               ***   
       CHOLESKY             ICHOLE         OFF          [  0]   ***   
       CIS_CONV             ICISTL              5               ***   
       COMM_SIZE            IPSIZE            ***               ***   
       CONSTANT             ICONST         OLD          [  1]   ***   
       CONTINUUM            ICONTU         NONE         [  0]   ***   
       CONTRACTION          ICNTYP          GENERAL     [  1]   ***   
       COORDINATES          ICOORD         INTERNAL     [  0]   ***   
       CPHF_CONVER          ICPHFT          10D- 16             ***   
       CPHF_MAXCYC          ICPHFC             64              cycles 
       CUBIC                ICUBIC         OFF          [  0]   ***   
       CURVILINEAR          ICURVY            OFF       [  0]   ***   
       DBOC                 IDBOC          OFF          [  0]   ***   
       DCT                  IDCT           OFF          [  0]   ***   
       DERIV_LEV            IDRLVL            ZERO      [  0]   ***   
       DIAG_MRCC            IEOMST          10D-  0             ***   
       DIFF_TYPE            IDIFTY         RELAXED      [  0]   ***   
       DIRECT               IDIRCT         OFF          [  0]   ***   
       DROPMO               IDRPMO      NONE         
       ECP                  IECP           OFF          [  0]   ***   
       EIGENVECTOR          IVEC                1               ***   
       EL_ANHARM            IELANH         OFF          [  0]   ***   
       EOMFOLLOW            IEOMSR         ENERGY       [  0]   ***   
       EOM_MRCC             IMRCCE         NEW          [  1]   ***   
       EOM_NONIT            EOMNON         OFF          [  0]   ***   
       EOM_NSING            IEOMSI          10D-  0             ***   
       EOM_NSTATES          IMRCCD         DAVIDSON     [  0]   ***   
       EOM_NTRIP            IEOMTR          10D-  0             ***   
       EOM_ORDER            IEXORD         ENERGY       [  0]   ***   
       ESTATE_CONV          IEXTOL          10D-  5             ***   
       ESTATE_DIAG          IEXDIG         ITERATIVE    [  0]   ***   
       ESTATE_LOCK          IESLOC         ON           [  1]   ***   
       ESTATE_MAXC          IEXMXC             20               ***   
       ESTATE_PROP          IEXPRP         OFF          [  0]   ***   
       EVAL_HESS            IRECAL              0            # of cyc.
       EXCITATION           IEXCIT              0               ***   
       EXCITE               IEXCIT         NONE         [  0]   ***   
       FCGRADNEW            IFCGNW         OFF          [  0]   ***   
       FC_FIELD             IFINFC              0             x 10-6  
       FD_CALTYPE           IFDCAL         GRADONLY     [  0]   ***   
       FD_PROJECT           IFDPRJ         OFF          [  1]   ***   
       FD_STEPSIZE          IDISFD              0            10-4 bohr
       FD_USEGROUP          IFDGRP         FULL         [  0]   ***   
       FILE_RECSIZ          IFLREC              4096           words  
       FINITE_PERT          IFIPER              0             x 10-6  
       FIXGEOM              IFIXGM         OFF          [  0]   ***   
       FOCK                 IFOCK          AO           [  1]   ***   
       FREQ_ALGORI          IVIALG         STANDARD     [  0]   ***   
       FROZEN_CORE          IFROCO         ON           [  1]   ***   
       FROZEN_VIRT          IFROVI         OFF          [  0]   ***   
       GAMMA_ABCD           IGABCD         STORE        [  0]   ***   
       GAMMA_ABCI           IGABCI         STORE        [  0]   ***   
       GENBAS_1             IGNBS1              0               ***   
       GENBAS_2             IGNBS2              0               ***   
       GENBAS_3             IGNBS3              0               ***   
       GENBAS_4             IGNBS4              0               ***   
       GEO_CONV             ICONTL              5              H/bohr 
       GEO_MAXCYC           IOPTCY             50               ***   
       GEO_MAXSTEP          IMXSTP            300            millibohr
       GEO_METHOD           INR            SINGLE_POINT [  5]   ***   
       GIAO                 IGIAO          OFF          [  1]   ***   
       GIMIC                IGIMIC         OFF          [  0]   ***   
       GRID                 IGRID          OFF          [  0]   ***   
       GRID_ALGO            IGALGO         SERIAL       [  0]   ***   
       GUESS                IGUESS            MOREAD    [  0]   ***   
       HBAR                 IHBAR              OFF      [  0]   ***   
       HESS_TYPE            IHESTP         SCF          [  0]   ***   
       HF2_FILE             IHF2Fl         USE          [  1]   ***   
       HFSTABILITY          ISTABL         OFF          [  0]   ***   
       INCORE               INCORE             OFF      [  0]   ***   
       INPUT_MRCC           IMRCC          OFF          [  0]   ***   
       INTEGRALS            INTTYP             VMOL     [  1]   ***   
       JODA_PRINT           IJPRNT              0               ***   
       LINDEP_TOL           ILINDP              8               ***   
       LINEQ_CONV           IZTACN          10D-  7           cycles  
       LINEQ_EXPOR          ILMAXD              5               ***   
       LINEQ_MAXCY          ILMAXC             50               ***   
       LINEQ_TYPE           ILTYPE         DIIS         [  1]   ***   
       LOCK_ORBOCC          ILOCOC             OFF      [  0]   ***   
       MEMORY_SIZE          IMEMSZ         *********           words  
       MEM_UNIT             IMEMU          GB           [  3]   ***   
       MRCC                 IMRCCC         OFF          [  0]   ***   
       MULTIPLICTY          IMULTP              4               ***   
       NEGEVAL              IDIE             ABORT      [  0]   ***   
       NEWNORM              INEWNO         OFF          [  0]   ***   
       NON-HF               INONHF              ON      [  1]   ***   
       NTOP_TAMP            ITOPT2             15               ***   
       NUC_MODEL            INUCMO         POINT        [  0]   ***   
       OCCUPATION           IOCCU  A   2,  1,  1,  0,  1,  0,  0,  0,
                                   B   2,  0,  0,  0,  0,  0,  0,  0,
       OPEN-SHELL           IOPEN          SPIN-ORBITAL [  0]   ***   
       ORBITALS             IORBTP         SEMICANONICAL[  1]   ***   
       PARALLEL             IPARAL         ON           [  1]   ***   
       PARA_INT             IPINTS         ON           [  1]   ***   
       PARA_PRINT           IPPRIN              0               ***   
       PERT_ORB             IPTORB         STANDARD     [  0]   ***   
       POINTS               IGRDFD              0               ***   
       PRINT                IPRNT               0               ***   
       PROPS                IPROPS             OFF      [  0]   ***   
       PROP_INTEGR          IINTYP         INTERNAL     [  0]   ***   
       PSI                  IPSI           OFF          [  0]   ***   
       QUARTIC              IQUART         OFF          [  0]   ***   
       RAMAN_INT            IRAMIN         OFF          [  0]   ***   
       RAMAN_ORB            IRAMRE         UNRELAXED    [  0]   ***   
       RDO                  IRDOFM             OFF      [  0]   ***   
       REFERENCE            IREFNC             ROHF     [  2]   ***   
       RELATIVIST           IRELAT         OFF          [  0]   ***   
       RELAX_DENS           IRDENS             OFF      [  0]   ***   
       RESET_FLAGS          IRESET             OFF      [  0]   ***   
       RESTART_CC           ICCRES         OFF          [  0]   ***   
       ROT_EVEC             ROTVEC              0               ***   
       SAVE_INTS            ISVINT              ON      [  1]   ***   
       SCALE_ON             ISTCRT              0               ***   
       SCF_CONV             ISCFCV          10D- 10             ***   
       SCF_DAMPING          IDAMP               0             x 10-3  
       SCF_EXPORDE          IRPPOR              6               ***   
       SCF_EXPSTAR          IRPPLS              5               ***   
       SCF_EXTRAPO          IRPP                ON      [  1]   ***   
       SCF_MAXCYC           ISCFCY            ***              cycles 
       SCF_NOSTOP           ISCFST         OFF          [  0]   ***   
       SCF_PRINT            ISCFPR              0               ***   
       SD_FIELD             IFINSD              0             x 10-6  
       SEQUENCE             ISEQUE         OFF          [  0]   ***   
       SOPERT               IPERSO         OFF          [  0]   ***   
       SPHERICAL            IDFGHI             ON       [  1]   ***   
       SPINORBIT            ISOCAL         OFF          [  0]   ***   
       SPINROTATIO          ISRCON         OFF          [  0]   ***   
       SPIN_FLIP            ISPFLP         OFF          [  0]   ***   
       SPIN_ORBIT           ISPORB         OFF          [  0]   ***   
       SPIN_SCAL            ISCSMP         OFF          [  0]   ***   
       SUBGROUP             ISUBGP         DEFAULT      [  0]   ***   
       SUBGRPAXIS           ISBXYZ         X            [  0]   ***   
       SYMMETRY             ISYM             ON         [  0]   ***   
       SYM_CHECK            ISYMCK         OVERRIDE     [  1]   ***   
       T3_EXTRAPOL          IT3EXT         ON           [  1]   ***   
       TAMP_SUM             IEVERY              5               ***   
       TESTSUITE            ITESTS         OFF          [  0]   ***   
       THERMOCH             ITHERM         OFF          [  0]   ***   
       TOL_CHOLESK          ITOLCH          10D-  4             ***   
       TRANGRAD             IRESRM         OFF          [  0]   ***   
       TRANS_INV            ITRAIN         USE          [  0]   ***   
       TREAT_PERT           ITREAT         SIMULTANEOUS [  0]   ***   
       UIJ_THRESHO          IUIJTH              1               ***   
       UNITS                IUNITS         ANGSTROM     [  0]   ***   
       UNOS                 IUNOS          OFF          [  0]   ***   
       UPDATE_HESS          IHUPDT         ON           [  1]   ***   
       VIBPHASE             ISETPH         STANDARD     [  0]   ***   
       VIBRATION            IVIB              NO        [  0]   ***   
       VIB_ALGORIT          IGEALG         STANDARD     [  0]   ***   
       VNATORB              IVNORB         OFF          [  0]   ***   
       VTRAN                IVTRAN         FULL/PARTIAL [  0]   ***   
       XFIELD               IXEFLD              0             x 10-6  
       XFORM_TOL            IXFTOL          10D- 18             ***   
       YFIELD               IYEFLD              0             x 10-6  
       ZFIELD               IZEFLD              0             x 10-6  
    -------------------------------------------------------------------
   1 entries found in Z-matrix 
   Job Title : TITLE                                                                           
  1  N          7    14.00307
 factor:   60.1997200000000     
   Rotational constants (in cm-1): 

   Rotational constants (in MHz): 

********************************************************************************
   The full molecular point group is I h .
   The largest Abelian subgroup of the full molecular point group is D2h .
   The computational point group is D2h .
********************************************************************************
  @GTFLGS-W, Keyword #DROPMO not known and is ignored.
  @GTFLGS-W, Keyword #SCF_DAMPING not known and is ignored.
  There is   1 frozen-core orbital.
  There is   1 frozen-core orbital.
  There are   80 basis functions.
 @GEOPT-W, Archive file not created for single-point calculation.
  @CHECKOUT-I, Total execution time (CPU/WALL):        0.24/       5.60 seconds.
--executable xjoda finished with status     0 in        6.91 seconds (walltime).
 --invoking executable--
/home/nike/cfour_v2.00beta/bin/xvmol
 Serial version of molecule started
********************************************************************************
                    Input from MOL file
********************************************************************************
INTGRL        1    0    1    0    0    0    0    0    0                         
         *** CFOUR Program System (Release V0.1) ***                            
TITLE                                                                           
    1    3 X  Y   Z   0.10E-08              0    0                              
   9999.00      3.00                                                            
          7.00000000    1    5    1    1    1    1    1                         
N #1   0.000000000000000   0.000000000000000   0.000000000000000                
   13    6                                                                      
   45840.0000000000       9.200000000000000E-005 -2.000000000000000E-005        
  0.000000000000000E+000  0.000000000000000E+000  0.000000000000000E+000        
  0.000000000000000E+000                                                        
   6868.00000000000       7.170000000000000E-004 -1.590000000000000E-004        
  0.000000000000000E+000  0.000000000000000E+000  0.000000000000000E+000        
  0.000000000000000E+000                                                        
   1563.00000000000       3.749000000000000E-003 -8.240000000000000E-004        
  0.000000000000000E+000  0.000000000000000E+000  0.000000000000000E+000        
  0.000000000000000E+000                                                        
   442.400000000000       1.553200000000000E-002 -3.478000000000000E-003        
  0.000000000000000E+000  0.000000000000000E+000  0.000000000000000E+000        
  0.000000000000000E+000                                                        
   144.300000000000       5.314600000000000E-002 -1.196600000000000E-002        
  0.000000000000000E+000  0.000000000000000E+000  0.000000000000000E+000        
  0.000000000000000E+000                                                        
   52.1800000000000       0.146787000000000      -3.538800000000000E-002        
  0.000000000000000E+000  0.000000000000000E+000  0.000000000000000E+000        
  0.000000000000000E+000                                                        
   20.3400000000000       0.304663000000000      -8.007700000000000E-002        
  0.000000000000000E+000  0.000000000000000E+000  0.000000000000000E+000        
  0.000000000000000E+000                                                        
   8.38100000000000       0.397684000000000      -0.146722000000000             
  0.000000000000000E+000  0.000000000000000E+000  0.000000000000000E+000        
  0.000000000000000E+000                                                        
   3.52900000000000       0.217641000000000      -0.116360000000000             
  0.000000000000000E+000  0.000000000000000E+000  0.000000000000000E+000        
  0.000000000000000E+000                                                        
   1.05400000000000       1.696300000000000E-002  0.279919000000000             
   1.00000000000000       0.000000000000000E+000  0.000000000000000E+000        
  0.000000000000000E+000                                                        
  0.411800000000000      -2.745000000000000E-003  0.585481000000000             
  0.000000000000000E+000   1.00000000000000       0.000000000000000E+000        
  0.000000000000000E+000                                                        
  0.155200000000000       9.530000000000000E-004  0.284028000000000             
  0.000000000000000E+000  0.000000000000000E+000   1.00000000000000             
  0.000000000000000E+000                                                        
  5.464000000000000E-002  0.000000000000000E+000  0.000000000000000E+000        
  0.000000000000000E+000  0.000000000000000E+000  0.000000000000000E+000        
   1.00000000000000                                                             
    7    5                                                                      
   49.3300000000000       5.533000000000000E-003  0.000000000000000E+000        
  0.000000000000000E+000  0.000000000000000E+000  0.000000000000000E+000        
   11.3700000000000       3.796200000000000E-002  0.000000000000000E+000        
  0.000000000000000E+000  0.000000000000000E+000  0.000000000000000E+000        
   3.43500000000000       0.149028000000000       0.000000000000000E+000        
  0.000000000000000E+000  0.000000000000000E+000  0.000000000000000E+000        
   1.18200000000000       0.348922000000000        1.00000000000000             
  0.000000000000000E+000  0.000000000000000E+000  0.000000000000000E+000        
  0.417300000000000       0.458972000000000       0.000000000000000E+000        
   1.00000000000000       0.000000000000000E+000  0.000000000000000E+000        
  0.142800000000000       0.244923000000000       0.000000000000000E+000        
  0.000000000000000E+000   1.00000000000000       0.000000000000000E+000        
  4.402000000000000E-002  0.000000000000000E+000  0.000000000000000E+000        
  0.000000000000000E+000  0.000000000000000E+000   1.00000000000000             
    4    4                                                                      
   2.83700000000000        1.00000000000000       0.000000000000000E+000        
  0.000000000000000E+000  0.000000000000000E+000                                
  0.968000000000000       0.000000000000000E+000   1.00000000000000             
  0.000000000000000E+000  0.000000000000000E+000                                
  0.335000000000000       0.000000000000000E+000  0.000000000000000E+000        
   1.00000000000000       0.000000000000000E+000                                
  0.111000000000000       0.000000000000000E+000  0.000000000000000E+000        
  0.000000000000000E+000   1.00000000000000                                     
    3    3                                                                      
   2.02700000000000        1.00000000000000       0.000000000000000E+000        
  0.000000000000000E+000                                                        
  0.685000000000000       0.000000000000000E+000   1.00000000000000             
  0.000000000000000E+000                                                        
  0.245000000000000       0.000000000000000E+000  0.000000000000000E+000        
   1.00000000000000                                                             
    2    2                                                                      
   1.42700000000000        1.00000000000000       0.000000000000000E+000        
  0.559000000000000       0.000000000000000E+000   1.00000000000000             
FINISH                                                                          
 
********************************************************************************
 One- and two-electron integrals over symmetry-adapted AOs are calculated.

  Spherical harmonics are used.
  
  Integrals less than  0.10E-13 are neglected.

  Nuclear repulsion energy :    0.0000000000 a.u.
  required memory for a1 array                5661596  words 
  required memory for a2 array                3638123  words 
 @GETMEM-I,  Allocated      86 MB of main memory.
  @MOLECU-I, One electron integrals (CPU/WALL):        0.04/       0.07 seconds.
  @TWOEL-I,      19165 integrals of symmetry type  I I I I
  @TWOEL-I,     131804 integrals of symmetry type  I J I J
  @TWOEL-I,      82229 integrals of symmetry type  I I J J
  @TWOEL-I,     286172 integrals of symmetry type  I J K L
  @TWOEL-I, Total number of 2-e integrals     519370.
  @MOLECU-I, Two electron integrals (CPU/WALL):        1.67/       2.05 seconds.
  @CHECKOUT-I, Total execution time (CPU/WALL):        1.74/       2.35 seconds.
--executable xvmol finished with status     0 in        2.66 seconds (walltime).
 --invoking executable--
/home/nike/cfour_v2.00beta/bin/xvmol2ja
 @GETMEM-I,  Allocated   19073 MB of main memory.
  @CHECKOUT-I, Total execution time (CPU/WALL):        0.01/       0.08 seconds.
--executable xvmol2ja finished with status     0 in        0.24 seconds (walltime).
 --invoking executable--
/home/nike/cfour_v2.00beta/bin/xvscf
  There are   80 functions in the AO basis.

  There are 8 irreducible representations.

       Irrep        # of functions
         1                 20
         2                 11
         3                 11
         4                  8
         5                 11
         6                  8
         7                  8
         8                  3


  Parameters for SCF calculation: 
        SCF reference function: ROHF  
  Maximum number of iterations: 9999
     Full symmetry point group: I h 
     Computational point group: D2h 
        Initial density matrix: MOREAD                 
     SCF convergence tolerance: 10**(-10)
  DIIS convergence acceleration:  ON
          Latest start for DIIS:   5
                     DIIS order:   6

     Alpha population by irrep:   2    1    1    0    1    0    0    0
      Beta population by irrep:   2    0    0    0    0    0    0    0


  Memory information:     390598 words required.
  Fock matrices are constructed from AO integral file.
 @GETMEM-I,  Allocated       2 MB of main memory.
  Initialization and symmetry analysis required      0.002 seconds.

 total no. of electrons in initial guess :  0.000000000000000E+000
 total no. of electrons in initial guess :  0.000000000000000E+000
  --------------------------------------------------------------------
  Iteration         Total Energy            Largest Density Difference
  --------------------------------------------------------------------
       0             0.000000000000000              0.0000000000D+00
   current occupation vector 
     2  1  1  0  1  0  0  0
     2  0  0  0  0  0  0  0
       1           -49.395530829132404              0.1033797252D+02
   current occupation vector 
     2  1  1  0  1  0  0  0
     2  0  0  0  0  0  0  0
       2           -51.423725216047458              0.1033441414D+02
   current occupation vector 
     2  1  1  0  1  0  0  0
     2  0  0  0  0  0  0  0
       3           -53.925387060612337              0.2083350869D+01
   current occupation vector 
     2  1  1  0  1  0  0  0
     2  0  0  0  0  0  0  0
       4           -52.608282948433697              0.1967762401D+01
   current occupation vector 
     2  1  1  0  1  0  0  0
     2  0  0  0  0  0  0  0
       5           -54.148881358994984              0.1538124694D+01
   current occupation vector 
     2  1  1  0  1  0  0  0
     2  0  0  0  0  0  0  0
       6           -54.367252502450810              0.5273383988D+00
   current occupation vector 
     2  1  1  0  1  0  0  0
     2  0  0  0  0  0  0  0
       7           -54.393382774820076              0.1414575614D+00
   current occupation vector 
     2  1  1  0  1  0  0  0
     2  0  0  0  0  0  0  0
       8           -54.395312197856029              0.1564309222D+00
   current occupation vector 
     2  1  1  0  1  0  0  0
     2  0  0  0  0  0  0  0
       9           -54.400079106520060              0.8456055717D-01
   current occupation vector 
     2  1  1  0  1  0  0  0
     2  0  0  0  0  0  0  0
      10           -54.400222060218034              0.1020332902D-01
   current occupation vector 
     2  1  1  0  1  0  0  0
     2  0  0  0  0  0  0  0
      11           -54.400224913333716              0.1630825933D-02
   current occupation vector 
     2  1  1  0  1  0  0  0
     2  0  0  0  0  0  0  0
      12           -54.400224914193920              0.3325140196D-04
   current occupation vector 
     2  1  1  0  1  0  0  0
     2  0  0  0  0  0  0  0
      13           -54.400224914195874              0.1652231668D-05
   current occupation vector 
     2  1  1  0  1  0  0  0
     2  0  0  0  0  0  0  0
      14           -54.400224914195839              0.8335825180D-07
   current occupation vector 
     2  1  1  0  1  0  0  0
     2  0  0  0  0  0  0  0
      15           -54.400224914195789              0.4893854655D-08
   current occupation vector 
     2  1  1  0  1  0  0  0
     2  0  0  0  0  0  0  0
      16           -54.400224914195746              0.4204652182D-09
   current occupation vector 
     2  1  1  0  1  0  0  0
     2  0  0  0  0  0  0  0

  SCF has converged.

 Density matrix saved to file den.dat
 total alpha spin electron number:   5.00000000000000     
 total  beta spin electron number:   2.00000000000000     
     E(ROHF)=       -54.400224914195768              0.1162481222D-10

  Eigenvector printing suppressed.


       The average multiplicity is    4.0000000
  The expectation value of S**2 is    3.7500000

 @PUTMOS-I, Writing converged MOs to NEWMOS. 
 @PUTMOS-I, Symmetry   1 Full Blocks  5 Partial Blocksize   0
 @PUTMOS-I, Symmetry   2 Full Blocks  2 Partial Blocksize   3
 @PUTMOS-I, Symmetry   3 Full Blocks  2 Partial Blocksize   3
 @PUTMOS-I, Symmetry   4 Full Blocks  2 Partial Blocksize   0
 @PUTMOS-I, Symmetry   5 Full Blocks  2 Partial Blocksize   3
 @PUTMOS-I, Symmetry   6 Full Blocks  2 Partial Blocksize   0
 @PUTMOS-I, Symmetry   7 Full Blocks  2 Partial Blocksize   0
 @PUTMOS-I, Symmetry   8 Full Blocks  0 Partial Blocksize   3
  @DMPJOB-I, Rotating orbitals to semicanonical basis.
             *** Eigenvalues correspond to new basis. ***



 
  ORBITAL EIGENVALUES (ALPHA)  (1H = 27.2113838 eV)

       MO #        E(hartree)               E(eV)           FULLSYM    COMPSYM
       ----   --------------------   --------------------   -------   ---------
    1     1         -15.6730655226        -426.4858015660      Ag        Ag (1)
    2     2          -1.1512475525         -31.3270390238      Ag        Ag (1)
    3    32          -0.5675776054         -15.4445720668     T1u       B3u (3)
    4    21          -0.5675776054         -15.4445720668     T1u       B2u (2)
    5    51          -0.5675776054         -15.4445720668     T1u       B1u (5)
  +++++++++++++++++++++++++++++++++++++++++++++++++++++++++++++++++++++++++++++
    6     3           0.1058362750           2.8799515001      Ag        Ag (1)
    7    52           0.1121041526           3.0505091239     T1u       B1u (5)
    8    22           0.1121041526           3.0505091239     T1u       B2u (2)
    9    33           0.1121041526           3.0505091239     T1u       B3u (3)
   10     4           0.3390654567           9.2264402810      Hg        Ag (1)
   11    62           0.3390654567           9.2264402810      Hg       B3g (6)
   12    43           0.3390654567           9.2264402810      Hg       B1g (4)
   13    70           0.3390654567           9.2264402810      Hg       B2g (7)
   14     5           0.3390654567           9.2264402810      Hg        Ag (1)
   15    23           0.5732062470          15.5977351940     T1u       B2u (2)
   16    53           0.5732062470          15.5977351940     T1u       B1u (5)
   17    34           0.5732062470          15.5977351940     T1u       B3u (3)
   18     6           0.6647996111          18.0901173821      Ag        Ag (1)
   19    78           1.0058609364          27.3708680100       u        Au (8)
   20    54           1.0058609364          27.3708680100       u       B1u (5)
   21    35           1.0058609364          27.3708680100       u       B3u (3)
   22    24           1.0058609364          27.3708680100       u       B2u (2)
   23    36           1.0058609364          27.3708680100       u       B3u (3)
   24    55           1.0058609364          27.3708680100       u       B1u (5)
   25    25           1.0058609364          27.3708680100       u       B2u (2)
   26     7           1.0988628056          29.9015775675      Hg        Ag (1)
   27     8           1.0988628056          29.9015775675      Hg        Ag (1)
   28    63           1.0988628056          29.9015775675      Hg       B3g (6)
   29    44           1.0988628056          29.9015775675      Hg       B1g (4)
   30    71           1.0988628056          29.9015775675      Hg       B2g (7)
   31    56           2.1822547417          59.3821713674     T1u       B1u (5)
   32    26           2.1822547417          59.3821713674     T1u       B2u (2)
   33    37           2.1822547417          59.3821713674     T1u       B3u (3)
   34    64           2.8276997431          76.9456230370       g       B3g (6)
   35    72           2.8276997431          76.9456230370       g       B2g (7)
   36     9           2.8276997431          76.9456230370       g        Ag (1)
   37    73           2.8276997431          76.9456230370       g       B2g (7)
   38    10           2.8276997431          76.9456230370       g        Ag (1)
   39    65           2.8276997431          76.9456230370       g       B3g (6)
   40    45           2.8276997431          76.9456230370       g       B1g (4)
   41    11           2.8276997431          76.9456230370       g        Ag (1)
   42    46           2.8276997431          76.9456230370       g       B1g (4)
   43    12           2.9189638054          79.4290444645      Ag        Ag (1)
   44    79           3.1264510701          85.0750600621       u        Au (8)
   45    38           3.1264510701          85.0750600621       u       B3u (3)
   46    57           3.1264510701          85.0750600621       u       B1u (5)
   47    39           3.1264510701          85.0750600621       u       B3u (3)
   48    27           3.1264510701          85.0750600621       u       B2u (2)
   49    58           3.1264510701          85.0750600621       u       B1u (5)
   50    28           3.1264510701          85.0750600621       u       B2u (2)
   51    13           3.1917718153          86.8525279305      Hg        Ag (1)
   52    14           3.1917718153          86.8525279305      Hg        Ag (1)
   53    66           3.1917718153          86.8525279305      Hg       B3g (6)
   54    74           3.1917718153          86.8525279305      Hg       B2g (7)
   55    47           3.1917718153          86.8525279305      Hg       B1g (4)
   56    15           8.1919112151         222.9132402890       g        Ag (1)
   57    16           8.1919112151         222.9132402890       g        Ag (1)
   58    17           8.1919112151         222.9132402890       g        Ag (1)
   59    75           8.1919112151         222.9132402890       g       B2g (7)
   60    48           8.1919112151         222.9132402890       g       B1g (4)
   61    76           8.1919112151         222.9132402890       g       B2g (7)
   62    67           8.1919112151         222.9132402890       g       B3g (6)
   63    68           8.1919112151         222.9132402890       g       B3g (6)
   64    49           8.1919112151         222.9132402890       g       B1g (4)
   65    59           8.2055981253         223.2856800559     T1u       B1u (5)
   66    40           8.2055981253         223.2856800559     T1u       B3u (3)
   67    29           8.2055981253         223.2856800559     T1u       B2u (2)
   68    60           9.0884588420         247.3095418786       u       B1u (5)
   69    30           9.0884588420         247.3095418786       u       B2u (2)
   70    61           9.0884588420         247.3095418786       u       B1u (5)
   71    80           9.0884588420         247.3095418786       u        Au (8)
   72    31           9.0884588420         247.3095418786       u       B2u (2)
   73    41           9.0884588420         247.3095418786       u       B3u (3)
   74    42           9.0884588420         247.3095418786       u       B3u (3)
   75    77           9.5025407377         258.5772832739      Hg       B2g (7)
   76    50           9.5025407377         258.5772832739      Hg       B1g (4)
   77    69           9.5025407377         258.5772832739      Hg       B3g (6)
   78    18           9.5025407377         258.5772832739      Hg        Ag (1)
   79    19           9.5025407377         258.5772832739      Hg        Ag (1)
   80    20          29.5665468482         804.5466545054      Ag        Ag (1)


 
  ORBITAL EIGENVALUES ( BETA)  (1H = 27.2113838 eV)

       MO #        E(hartree)               E(eV)           FULLSYM    COMPSYM
       ----   --------------------   --------------------   -------   ---------
    1     1         -15.5864414554        -424.1286408239      Ag        Ag (1)
    2     2          -0.7395784064         -20.1249518810      Ag        Ag (1)
  +++++++++++++++++++++++++++++++++++++++++++++++++++++++++++++++++++++++++++++
    3    51           0.0728710570           1.9829223006     T1u       B1u (5)
    4    32           0.0728710570           1.9829223006     T1u       B3u (3)
    5    21           0.0728710570           1.9829223006     T1u       B2u (2)
    6     3           0.1197070543           3.2573945997      Ag        Ag (1)
    7    33           0.1988072718           5.4098209803     T1u       B3u (3)
    8    52           0.1988072718           5.4098209803     T1u       B1u (5)
    9    22           0.1988072718           5.4098209803     T1u       B2u (2)
   10     4           0.3549387866           9.6583755539      Hg        Ag (1)
   11    70           0.3549387866           9.6583755539      Hg       B2g (7)
   12    62           0.3549387866           9.6583755539      Hg       B3g (6)
   13     5           0.3549387866           9.6583755539      Hg        Ag (1)
   14    43           0.3549387866           9.6583755539      Hg       B1g (4)
   15    34           0.6997116577          19.0401224814     T1u       B3u (3)
   16    53           0.6997116577          19.0401224814     T1u       B1u (5)
   17    23           0.6997116577          19.0401224814     T1u       B2u (2)
   18     6           0.7275760528          19.7983512309      Ag        Ag (1)
   19    78           1.0235473644          27.8521401901       u        Au (8)
   20    24           1.0235473644          27.8521401901       u       B2u (2)
   21    35           1.0235473644          27.8521401901       u       B3u (3)
   22    36           1.0235473644          27.8521401901       u       B3u (3)
   23    54           1.0235473644          27.8521401901       u       B1u (5)
   24    55           1.0235473644          27.8521401901       u       B1u (5)
   25    25           1.0235473644          27.8521401901       u       B2u (2)
   26     7           1.1993613742          32.6362826905      Hg        Ag (1)
   27     8           1.1993613742          32.6362826905      Hg        Ag (1)
   28    63           1.1993613742          32.6362826905      Hg       B3g (6)
   29    71           1.1993613742          32.6362826905      Hg       B2g (7)
   30    44           1.1993613742          32.6362826905      Hg       B1g (4)
   31    37           2.3285455457          63.3629465848     T1u       B3u (3)
   32    56           2.3285455457          63.3629465848     T1u       B1u (5)
   33    26           2.3285455457          63.3629465848     T1u       B2u (2)
   34    72           2.8555439770          77.7033031726       g       B2g (7)
   35     9           2.8555439770          77.7033031726       g        Ag (1)
   36    73           2.8555439770          77.7033031726       g       B2g (7)
   37    64           2.8555439770          77.7033031726       g       B3g (6)
   38    10           2.8555439770          77.7033031726       g        Ag (1)
   39    65           2.8555439770          77.7033031726       g       B3g (6)
   40    45           2.8555439770          77.7033031726       g       B1g (4)
   41    46           2.8555439770          77.7033031726       g       B1g (4)
   42    11           2.8555439770          77.7033031726       g        Ag (1)
   43    12           3.0279941818          82.3959118832      Ag        Ag (1)
   44    38           3.1975250332          87.0090809504       u       B3u (3)
   45    27           3.1975250332          87.0090809504       u       B2u (2)
   46    79           3.1975250332          87.0090809504       u        Au (8)
   47    57           3.1975250332          87.0090809504       u       B3u (5)
   48    39           3.1975250332          87.0090809504       u       B1u (3)
   49    58           3.1975250332          87.0090809504       u       B1u (5)
   50    28           3.1975250332          87.0090809504       u       B2u (2)
   51    13           3.3471123792          91.0795596364      Hg        Ag (1)
   52    74           3.3471123792          91.0795596364      Hg       B2g (7)
   53    66           3.3471123792          91.0795596364      Hg       B3g (6)
   54    14           3.3471123792          91.0795596364      Hg        Ag (1)
   55    47           3.3471123792          91.0795596364      Hg       B1g (4)
   56    15           8.2541943025         224.6080492867       g        Ag (1)
   57    16           8.2541943025         224.6080492867       g        Ag (1)
   58    17           8.2541943025         224.6080492867       g        Ag (1)
   59    75           8.2541943025         224.6080492867       g       B2g (7)
   60    48           8.2541943025         224.6080492867       g       B1g (4)
   61    67           8.2541943025         224.6080492867       g       B3g (6)
   62    76           8.2541943025         224.6080492867       g       B2g (7)
   63    68           8.2541943025         224.6080492867       g       B3g (6)
   64    49           8.2541943025         224.6080492867       g       B1g (4)
   65    59           8.3103472237         226.1360479774     T1u       B1u (5)
   66    29           8.3103472237         226.1360479774     T1u       B2u (2)
   67    40           8.3103472237         226.1360479774     T1u       B3u (3)
   68    60           9.1865754500         249.9794305568       u       B1u (5)
   69    30           9.1865754500         249.9794305568       u       B2u (2)
   70    31           9.1865754500         249.9794305568       u       B2u (2)
   71    61           9.1865754500         249.9794305568       u       B1u (5)
   72    41           9.1865754500         249.9794305568       u       B3u (3)
   73    80           9.1865754500         249.9794305568       u        Au (8)
   74    42           9.1865754500         249.9794305568       u       B3u (3)
   75    77           9.6227804150         261.8491712854      Hg       B2g (7)
   76    50           9.6227804150         261.8491712854      Hg       B1g (4)
   77    69           9.6227804150         261.8491712854      Hg       B3g (6)
   78    18           9.6227804150         261.8491712854      Hg        Ag (1)
   79    19           9.6227804150         261.8491712854      Hg        Ag (1)
   80    20          29.6201010771         806.0039391827      Ag        Ag (1)


  VSCF finished.

  @CHECKOUT-I, Total execution time (CPU/WALL):        0.93/       1.46 seconds.
--executable xvscf finished with status     0 in        1.63 seconds (walltime).
 --invoking executable--
/home/nike/cfour_v2.00beta/bin/xvtran
 @GETMEM-I,  Allocated   19073 MB of main memory.
  Full UHF integral transformation
  The following   1 alpha MOs will be dropped.
    1
  There are  79 active alpha molecular orbitals.
  The following   1 beta MOs will be dropped.
    1
  There are  79 active beta molecular orbitals.
  Transformation of IIII integrals :
  2 passes through the AO integral file were required.
       19165 AO integrals were read.
       26797 MO integrals (Spin case AAAA) were written to HF2AA.
       26797 MO integrals (Spin case BBBB) were written to HF2BB.
       53092 MO integrals (Spin case AABB) were written to HF2AB.
  Transformation of IIJJ integrals :
  2 passes through the AO integral file were required.
       82229 AO integrals were read.
       99456 MO integrals (Spin case AAAA) were written to HF2AA.
       99455 MO integrals (Spin case BBBB) were written to HF2BB.
      198910 MO integrals (Spin case AABB) were written to HF2AB.
  Transformation of IJIJ integrals :
  2 passes through the AO integral file were required.
      131804 AO integrals were read.
      168578 MO integrals (Spin case AAAA) were written to HF2AA.
      168580 MO integrals (Spin case BBBB) were written to HF2BB.
      334506 MO integrals (Spin case AABB) were written to HF2AB.
  Transformation of IJKL integrals :
  2 passes through the AO integral file were required.
      286172 AO integrals were read.
      340539 MO integrals (Spin case AAAA) were written to HF2AA.
      340539 MO integrals (Spin case BBBB) were written to HF2BB.
      681078 MO integrals (Spin case AABB) were written to HF2AB.
  Summary of active molecular orbitals: 
------------------------------------------------------------------------
                         * Spin case alpha *
 
  Index      Eigenvalue    Symmetry    Index      Eigenvalue    Symmetry
------------------------------------------------------------------------
     1        -1.1512476        1        41         9.0884588        3
     2        -0.5675776        2        42         9.0884588        3
     3        -0.5675776        3        43         0.3390655        4
     4        -0.5675776        5        44         1.0988628        4
     5         0.1058363        1        45         2.8276997        4
     6         0.3390655        1        46         2.8276997        4
     7         0.3390655        1        47         3.1917718        4
     8         0.6647996        1        48         8.1919112        4
     9         1.0988628        1        49         8.1919112        4
    10         1.0988628        1        50         9.5025407        4
    11         2.8276997        1        51         0.1121042        5
    12         2.8276997        1        52         0.5732062        5
    13         2.8276997        1        53         1.0058609        5
    14         2.9189638        1        54         1.0058609        5
    15         3.1917718        1        55         2.1822547        5
    16         3.1917718        1        56         3.1264511        5
    17         8.1919112        1        57         3.1264511        5
    18         8.1919112        1        58         8.2055981        5
    19         8.1919112        1        59         9.0884588        5
    20         9.5025407        1        60         9.0884588        5
    21         9.5025407        1        61         0.3390655        6
    22        29.5665468        1        62         1.0988628        6
    23         0.1121042        2        63         2.8276997        6
    24         0.5732062        2        64         2.8276997        6
    25         1.0058609        2        65         3.1917718        6
    26         1.0058609        2        66         8.1919112        6
    27         2.1822547        2        67         8.1919112        6
    28         3.1264511        2        68         9.5025407        6
    29         3.1264511        2        69         0.3390655        7
    30         8.2055981        2        70         1.0988628        7
    31         9.0884588        2        71         2.8276997        7
    32         9.0884588        2        72         2.8276997        7
    33         0.1121042        3        73         3.1917718        7
    34         0.5732062        3        74         8.1919112        7
    35         1.0058609        3        75         8.1919112        7
    36         1.0058609        3        76         9.5025407        7
    37         2.1822547        3        77         1.0058609        8
    38         3.1264511        3        78         3.1264511        8
    39         3.1264511        3        79         9.0884588        8
    40         8.2055981        3
------------------------------------------------------------------------
------------------------------------------------------------------------
                         * Spin case beta *
 
  Index      Eigenvalue    Symmetry    Index      Eigenvalue    Symmetry
------------------------------------------------------------------------
     1        -0.7395784        1        41         9.1865754        3
     2         0.1197071        1        42         0.3549388        4
     3         0.3549388        1        43         1.1993614        4
     4         0.3549388        1        44         2.8555440        4
     5         0.7275761        1        45         2.8555440        4
     6         1.1993614        1        46         3.3471124        4
     7         1.1993614        1        47         8.2541943        4
     8         2.8555440        1        48         8.2541943        4
     9         2.8555440        1        49         9.6227804        4
    10         2.8555440        1        50         0.0728711        5
    11         3.0279942        1        51         0.1988073        5
    12         3.3471124        1        52         0.6997117        5
    13         3.3471124        1        53         1.0235474        5
    14         8.2541943        1        54         1.0235474        5
    15         8.2541943        1        55         2.3285455        5
    16         8.2541943        1        56         3.1975250        5
    17         9.6227804        1        57         3.1975250        5
    18         9.6227804        1        58         8.3103472        5
    19        29.6201011        1        59         9.1865754        5
    20         0.0728711        2        60         9.1865754        5
    21         0.1988073        2        61         0.3549388        6
    22         0.6997117        2        62         1.1993614        6
    23         1.0235474        2        63         2.8555440        6
    24         1.0235474        2        64         2.8555440        6
    25         2.3285455        2        65         3.3471124        6
    26         3.1975250        2        66         8.2541943        6
    27         3.1975250        2        67         8.2541943        6
    28         8.3103472        2        68         9.6227804        6
    29         9.1865754        2        69         0.3549388        7
    30         9.1865754        2        70         1.1993614        7
    31         0.0728711        3        71         2.8555440        7
    32         0.1988073        3        72         2.8555440        7
    33         0.6997117        3        73         3.3471124        7
    34         1.0235474        3        74         8.2541943        7
    35         1.0235474        3        75         8.2541943        7
    36         2.3285455        3        76         9.6227804        7
    37         3.1975250        3        77         1.0235474        8
    38         3.1975250        3        78         3.1975250        8
    39         8.3103472        3        79         9.1865754        8
    40         9.1865754        3
------------------------------------------------------------------------
  @CHECKOUT-I, Total execution time (CPU/WALL):        0.73/       7.11 seconds.
--executable xvtran finished with status     0 in        7.28 seconds (walltime).
 --invoking executable--
/home/nike/cfour_v2.00beta/bin/xintprc
 @GETMEM-I,  Allocated   19073 MB of main memory.
  Processing integrals for CCSD calculation.
  @GMOIAA-I, Processing MO integrals for spin case AA.
  @GMOIAA-I, Generation of integral list completed.
                      TYPE                NUMBER
                      ----               --------
                      PPPP                516003
                      PPPH                109017
                      PPHH                  6011
                      PHPH                  3906
                      PHHH                   417
                      HHHH                    16

                     TOTAL                635370
  @GMOIAA-I, Processing MO integrals for spin case BB.
  @GMOIAA-I, Generation of integral list completed.
                      TYPE                NUMBER
                      ----               --------
                      PPPP                602919
                      PPPH                 31467
                      PPHH                   483
                      PHPH                   483
                      PHHH                    18
                      HHHH                     1

                     TOTAL                635371
  @GMOIAB-I, Processing MO integrals for spin case AB.
                      TYPE                NUMBER
                      ----               --------
                      PPPP               1112525
                      PPPH1H              117972
                      PPPH2H               29105
                      PPHH                  3141
                      PHPH1P                 450
                      PHPH2P                4212
                      PHHH1P                  48
                      PHHH2P                 129
                      HHHH                     4

                     TOTAL               1267586
            ----------------------------------------------
                     Projected spin multiplicities: 
            ----------------------------------------------
             <0|S^2|0>                  =    3.7500000000.
             <0|S^2 T2|0>               =    0.0000000000.
             Projected <0|S^2 exp(T)|0> =    3.7500000000.
             Approximate spin mult.     =    4.0000000000.
            ----------------------------------------------
   Largest T2 amplitudes for spin case AA:
   i   j   a   b             i   j   a   b             i   j   a   b
-----------------------------------------------------------------------------
[  3   2  34  24]-0.01872 [  4   3  52  34]-0.01872 [  4   2  52  24]-0.01872
[  3   2  44  10] 0.01610 [  4   3  70   9] 0.01495 [  4   2  62   9] 0.01294
[  4   3  55  34]-0.01155 [  3   2  37  24]-0.01155 [  3   2  34  27]-0.01155
[  4   2  55  24]-0.01155 [  4   2  52  27]-0.01155 [  4   3  52  37]-0.01155
[  3   2  37  27]-0.01115 [  4   3  55  37]-0.01115 [  4   2  55  27]-0.01115
-----------------------------------------------------------------------------
   Norm of T2AA vector (     2106 symmetry allowed elements):  0.0859825295.
-----------------------------------------------------------------------------
   Largest T2 amplitudes for spin case AB:
       _       _                 _       _                 _       _
   i   j   a   b             i   j   a   b             i   j   a   b
-----------------------------------------------------------------------------
[  4   1   9  51] 0.02187 [  2   1  10  21]-0.02031 [  4   1  70  32] 0.01909
[  4   1  62  21] 0.01909 [  3   1  44  21] 0.01909 [  2   1  44  32] 0.01909
[  3   1  70  51] 0.01909 [  2   1  62  51] 0.01909 [  3   1  34   5]-0.01897
[  2   1  24   5]-0.01897 [  4   1  52   5]-0.01897 [  3   1  10  32] 0.01758
[  4   1   9  50]-0.01522 [  1   1   8   5]-0.01420 [  2   1  10  20] 0.01413
-----------------------------------------------------------------------------
   Norm of T2AB vector (     3141 symmetry allowed elements):  0.1370519457.
-----------------------------------------------------------------------------
  @CHECKOUT-I, Total execution time (CPU/WALL):        0.54/       4.28 seconds.
--executable xintprc finished with status     0 in        7.35 seconds (walltime).
 --invoking executable--
/home/nike/cfour_v2.00beta/bin/xint
 @GETMEM-I,  Allocated   19073 MB of main memory.
  @CHECKOUT-I, Total execution time (CPU/WALL):       10.36/      11.17 seconds.
--executable xint finished with status     0 in       17.29 seconds (walltime).
 --invoking executable--
/home/nike/MRCC/dmrcc
 **********************************************************************
                          MRCC program system
 **********************************************************************
 
                              Written by
    Mihaly Kallay, Zoltan Rolik, Jozsef Csontos, Istvan Ladjanszki,
       Lorant Szegedy, Bence Ladoczki, Gyula Samu, Klara Petrov,
        Mate Farkas, Peter Nagy, David Mester, and Bence Hegely
 
        Department of Physical Chemistry and Materials Science
            Budapest University of Technology and Economics
                  Budapest P.O.Box 91, H-1521 Hungary
 
                              www.mrcc.hu

 ************************ 2018-07-06 01:03:25 *************************
 Executing minp...

 Reading input from MINP...
 
 Input file:
 
# N 2Z
basis=aVQZ-EMSL
iface=cfour
uncontract=off
calc=CC(5)
mem=32GB
core=1
itol=18
scftol=13
cctol=7
ccmaxit=999
scfmaxit=9999
scfiguess=ao
scftype=ROHF
rohftype=semicanonical
rest=2
charge=+0
refdet=serialno
1
2,3,4

symm=8
mult=4
#occ=3,0,0,0,0,1,0,0/1,0,0,0,0,1,0,0
geom
N

#Li 1 R

#R=3.065

#unit=angstroms

tprint=0.01
verbosity=3
nstate=4

 
 
 Checking keyword combinations...
 
 Keywords:
 
 active=none
 agrid=ld0006-ld0590
 basis=avqz-emsl
 basopt=off
 bpcompo=0.985
 bpcompv=0.98
 bpdfo=0.985
 bpocc=0.985
 bppdo=0.985
 bppdv=0.98
 bpedo=0.985
 bpedv=0.98
 calc=cc(5)
 ccmaxit=999
 ccprog=mrcc
 cctol=7
 charge=+0
 cialg=disk
 ciguess=off
 cmpgrp=auto
 core=1
 corembed=off
 dboc=off
 dendec=cholesky
 dens=0
 dfalg=invsqrt
 dfbasis_cor=none
 dfbasis_scf=none
 dfintran=ovirt
 dft=off
 diag=david
 domrad=10.d0
 drpaalg=fit
 ecp=auto
 edisp=off
 embed=off
 epert=none
 eps=0.975
 excrad=0.d0
 excrad_fin=0.000000000D+00
 freq=off
 gauss=spher
 geom=zmat
 gopt=off
 ghost=none
 gtol=7
 grtol=10
 hamilton=dc
 iface=cfour
 intalg=auto
 itol=18
 lcorthr=loose
 lccrest=off
 lmp2dens=on
 lnoepso=3e-5
 lnoepsv=1e-6
 localcc=off
 locintrf=disk
 maxact=off
 maxex=0
 bfbasis=none
 mem=32gb
 molden=on
 mulmet=0
 mult=4
 nacto=0
 nactv=0
 naf_cor=off
 naf_scf=off
 nafalg=albe
 naftyp=
 nchol=auto
 ndeps=1e-3
 nstate=4
 nsing=0
 ntrip=0
 occ=
 optalg=
 optmaxit=50
 optetol=1e-6
 optgtol=1e-4
 optstol=1e-3
 orblocc=off
 orbloco=off
 orblocv=off
 osveps=1e-3
 ovirt=off
 ovosnorb=80.0
 ptfreq=0.0
 popul=off
 pressure=100000
 qmmm=off
 refdet=serialno
 rest=2
 rgrid=log3
 rohftype=semicanonical
 scspe=1.d0
 scsps=1.2d0
 scspt=0.33333333333333
 scfalg=auto
 scfdamp=off
 scfdiis=on
 scfdiis_end=9999
 scfdiis_start=1
 scfdiis_step=1
 scfdtol=17
 scfext=10
 scfiguess=ao
 scflshift=off
 scfmaxit=9999
 scftype=rohf
 scftol=13
 spairtol=1e-4
 symm=8
 talg=occ
 temp=298.15
 test=off
 tprint=0.01
 uncontract=off
 unit=angs
 verbosity=3
 wpairtol=0.100000000E-05

 ************************ 2018-07-06 01:03:26 *************************
 Executing goldstone...

 Generation of CC equations in terms of H and T...
 Generation of antisymmetrized Goldstone diagrams...
 Number of diagrams in T^1 equations:    15
 Number of diagrams in T^2 equations:    38
 Number of diagrams in T^3 equations:    54
 Number of diagrams in T^4 equations:    80
 Number of diagrams in T^5 equations:    99
 Translation of diagrams to factorized equations...
 Optimizing intermediate calculation...
 Optimizing right-hand EOMCC calculation...
 Number of floating-point operations per iteration step:   2.1361E+12
 Probable CPU time per iteration step (hours):     21.36
 Required memory (Mbytes):   16324.3
 Number of intermediates:                                 354
 Number of intermediates to be stored:                    131
 Length of intermediate file (Mbytes):   18079.1

 ************************ 2018-07-06 01:03:32 *************************
 Executing xmrcc...

 **********************************************************************
 CC(                     5 ) calculation 
 
 
 Allocation of****** Mbytes of memory...
 Number of spinorbitals:                   158
 Number of alpha electrons:                        4
 Number of beta electrons:                         1
 z-component of spin:  1.5
 Spatial symmetry:                      8
 Convergence criterion:  1.0E-07
 Construction of occupation graphs...
 Number of                     0 -fold excitations:                      1
 Number of                     1 -fold excitations:                     66
 Number of                     2 -fold excitations:                   5247
 Number of                     3 -fold excitations:                 195956
 Number of                     4 -fold excitations:                2783259
 Number of                     5 -fold excitations:               11859246
 Total number of configurations:               14843775
 Calculation of coupling coefficients...
 Length of intermediate file (Mbytes):    5148.0
 
 ======================================================================
 
 ======================================================================
 
 ======================================================================
 
 ======================================================================
 
 Memory requirements /Mbyte/: 
               Minimal        Optimal
 Real*8:      72421.1936     72421.1936
 Integer:       475.1209
 Total:       72896.3145     72896.3145
 

 ************************ 2018-07-06 01:04:12 *************************
 Executing goldstone...

 Generation of MRCC equations in terms of H and T...
 Generation of antisymmetrized Goldstone diagrams...
 Number of diagrams in T^1 equations:    15
 Number of diagrams in T^2 equations:    38
 Number of diagrams in T^3 equations:    54
 Number of diagrams in T^4 equations:    80
 Number of diagrams in T^5 equations:    99
 Translation of diagrams to factorized equations...
 Number of restricted diagrams in T^1 equations:     30
 Number of restricted diagrams in T^2 equations:    129
 Number of restricted diagrams in T^3 equations:    306
 Number of restricted diagrams in T^4 equations:    669
 Number of restricted diagrams in T^5 equations:   1238
 Optimizing intermediate calculation...
 Optimizing right-hand EOMCC calculation...
 Number of floating-point operations per iteration step:   1.1360E+12
 Probable CPU time per iteration step (hours):     11.36
 Required memory (Mbytes):    4478.2
 Number of intermediates:                                1894
 Number of intermediates to be stored:                    591
 Length of intermediate file (Mbytes):    4053.7

 ************************ 2018-07-06 01:04:15 *************************
 Executing xmrcc...

 **********************************************************************
 MRCC(                     5 ) calculation 
 
 
 Allocation of4478.2 Mbytes of memory...
 Number of spinorbitals:                   158
 Number of alpha electrons:                        4
 Number of beta electrons:                         1
 Number of active particles:                    78
 Number of active holes:                         0
 z-component of spin:  1.5
 Spatial symmetry:                      8
 Convergence criterion:  1.0E-07
 Construction of occupation graphs...
 Number of                     0 -fold excitations:                      1
 Number of                     1 -fold excitations:                     66
 Number of                     2 -fold excitations:                   5247
 Number of                     3 -fold excitations:                 195956
 Number of                     4 -fold excitations:                2783259
 Number of                     5 -fold excitations:               11859246
 Total number of configurations:               14843775
 Calculation of coupling coefficients...
 Length of intermediate file (Mbytes):    2738.2
 
 ======================================================================
 
 ======================================================================
 
 ======================================================================
 
 ======================================================================
 
 Memory requirements /Mbyte/: 
               Minimal        Optimal
 Real*8:       1998.8986      2223.6451
 Integer:       499.1320
 Total:        2498.0305      2722.7771
 

 ************************ 2018-07-06 01:05:55 *************************
 Executing goldstone...

 Generation of MRCC equations in terms of H and T...
 Generation of antisymmetrized Goldstone diagrams...
 Number of diagrams in T^1 equations:     8
 Translation of diagrams to factorized equations...
 Number of restricted diagrams in T^1 equations:     12
 Optimizing intermediate calculation...
 Optimizing right-hand EOMCC calculation...
 Number of floating-point operations per iteration step:   2.8201E+03
 Probable CPU time per iteration step (hours):      0.00
 Required memory (Mbytes):    4478.2
 Number of intermediates:                                  52
 Number of intermediates to be stored:                     34
 Length of intermediate file (Mbytes):      44.2

 ************************ 2018-07-06 01:05:55 *************************
 Executing xmrcc...

 **********************************************************************
 MRCC(                     1 ) calculation 
 
 
 Allocation of4478.2 Mbytes of memory...
 Number of spinorbitals:                   158
 Number of alpha electrons:                        4
 Number of beta electrons:                         1
 Number of active particles:                    78
 Number of active holes:                         0
 z-component of spin:  1.5
 Spatial symmetry:                      8
 Convergence criterion:  1.0E-07
 Construction of occupation graphs...
 Number of                     0 -fold excitations:                      1
 Number of                     1 -fold excitations:                     66
 Total number of configurations:                     67
 Calculation of coupling coefficients...
 Length of intermediate file (Mbytes):      36.6
 
 ======================================================================
 
 ======================================================================
 
 ======================================================================
 
 ======================================================================
 
 Memory requirements /Mbyte/: 
               Minimal        Optimal
 Real*8:          3.8568       297.2647
 Integer:         4.0436
 Total:           7.9004       301.3083
 

 ************************ 2018-07-06 01:05:55 *************************
 Executing mrcc...

 **********************************************************************
 LR-CCS calculation                                                     
 
 
 OpenMP parallel version is running.
 Number of CPUs:  32
 Allocation of  297.3 Mbytes of memory...
 Number of spinorbitals: 158
 Number of alpha electrons:  4
 Number of beta  electrons:  1
 Number of active particles:                    78
 Number of active holes:                         0
 z-component of spin:  1.5
 Spatial symmetry: 8
 Convergence criterion:  1.0E-07
 Construction of occupation graphs...
 Number of 0-fold excitations: 1
 Number of 1-fold excitations: 66
 Total number of determinants: 67
 Calculation of coupling coefficients...
 Initial cluster amplitudes are generated.
 Length of intermediate file (Mbytes):      36.6
 Reading integral list from unit 55...
 Sorting integrals...
 Sorting integrals...
 Sorting integrals...
 Sorting integrals...
 Energy of reference determinant [au]:     -54.400224914196
 Calculation of diagonal elements of Hamiltonian...
 Calculation of MP denominators...
 
 Starting CC iteration...
 ======================================================================
 Norm of residual vector:     0.05923551
 CPU time [min]:     0.993                   Wall time [min]:     0.519
 
 Iteration  1  CC energy:   -54.40235451  Energy decrease:   0.00212959
 ======================================================================
 Norm of residual vector:     0.01900354
 CPU time [min]:     1.007                   Wall time [min]:     0.519
 
 Iteration  2  CC energy:   -54.40333764  Energy decrease:   0.00098313
 ======================================================================
 Norm of residual vector:     0.00207697
 CPU time [min]:     1.022                   Wall time [min]:     0.519
 
 Iteration  3  CC energy:   -54.40340119  Energy decrease:   0.00006355
 ======================================================================
 Norm of residual vector:     0.00017621
 CPU time [min]:     1.037                   Wall time [min]:     0.520
 
 Iteration  4  CC energy:   -54.40340043  Energy decrease:   0.00000076
 ======================================================================
 Norm of residual vector:     0.00001309
 CPU time [min]:     1.051                   Wall time [min]:     0.520
 
 Iteration  5  CC energy:   -54.40340027  Energy decrease:   0.00000017
 ======================================================================
 Norm of residual vector:     0.00000159
 CPU time [min]:     1.067                   Wall time [min]:     0.521
 
 Iteration  6  CC energy:   -54.40340028  Energy decrease:   0.00000001
 ======================================================================
 Norm of residual vector:     0.00000010
 CPU time [min]:     1.080                   Wall time [min]:     0.521
 
 Iteration  7  CC energy:   -54.40340028  Energy decrease:   2.8439E-10
 ======================================================================
 
 Iteration has converged in  7 steps.
 
 Final results:
 Total CCS energy [au]:              -54.403400278070
 Spin multiplicity:                     2
 
 
 
 Dominant cluster amplitudes
 Printing threshold:  1.00E-02
 
    1.000000  Reference determinant                                     
    0.032992  1b -> 5b                                                  
   -0.034582  1b -> 17b                                                 
   -0.021417  1a -> 5a                                                  
    0.025230  1a -> 17a                                                 
 
 Starting right-hand LR-CC iteration for root                      2 ...
 ======================================================================
 Norm of residual vector:     0.07289105      Convergence:   1.00000000
 CPU time [min]:     1.163                   Wall time [min]:     0.524
 
 Iteration  1  CI energy:   -53.91167200  Energy decrease:   0.49172828
 ======================================================================
 Norm of residual vector:     0.07774332      Convergence:   0.44826923
 CPU time [min]:     1.190                   Wall time [min]:     0.525
 
 Iteration  2  CI energy:   -53.91392112  Energy decrease:   0.00224912
 ======================================================================
 Norm of residual vector:     0.03620050      Convergence:   0.23434311
 CPU time [min]:     1.218                   Wall time [min]:     0.526
 
 Iteration  3  CI energy:   -53.93115790  Energy decrease:   0.01723678
 ======================================================================
 Norm of residual vector:     0.00690194      Convergence:   0.04238938
 CPU time [min]:     1.238                   Wall time [min]:     0.527
 
 Iteration  4  CI energy:   -53.93222366  Energy decrease:   0.00106577
 ======================================================================
 Norm of residual vector:     0.00311234      Convergence:   0.01613243
 CPU time [min]:     1.259                   Wall time [min]:     0.527
 
 Iteration  5  CI energy:   -53.93230940  Energy decrease:   0.00008573
 ======================================================================
 Norm of residual vector:     0.00069252      Convergence:   0.00329441
 CPU time [min]:     1.282                   Wall time [min]:     0.528
 
 Iteration  6  CI energy:   -53.93231502  Energy decrease:   0.00000562
 ======================================================================
 Norm of residual vector:     0.00004705      Convergence:   0.00031917
 CPU time [min]:     1.306                   Wall time [min]:     0.529
 
 Iteration  7  CI energy:   -53.93231516  Energy decrease:   0.00000014
 ======================================================================
 Norm of residual vector:     0.00000536      Convergence:   0.00003442
 CPU time [min]:     1.330                   Wall time [min]:     0.529
 
 Iteration  8  CI energy:   -53.93231515  Energy decrease:   3.9792E-09
 ======================================================================
 Norm of residual vector:     0.00000043      Convergence:   0.00000402
 CPU time [min]:     1.364                   Wall time [min]:     0.531
 
 Iteration  9  CI energy:   -53.93231515  Energy decrease:   3.9121E-10
 ======================================================================
 Norm of residual vector:     0.0000E+00      Convergence:   3.4372E-07
 CPU time [min]:     1.413                   Wall time [min]:     0.532
 
 Iteration 10  CI energy:   -53.93231515  Energy decrease:   1.3713E-12
 ======================================================================
 
 Iteration has converged in 10 steps.
 
 Final results:
 Total LR-CCS energy [au]:           -53.932315152248
 Excitation energy [eV]:          12.8189
 Excitation energy [cm^-1]:   103391.24
 Absorption wavelength [nm]:      96.72
 Spin multiplicity:                     2
 
 
 
 Dominant CI coefficients
 Printing threshold:  1.00E-02
 
    0.010467  1a -> 9a                                                  
    0.027507  1a -> 10a                                                 
    0.398050  3a -> 8a                                                  
    0.089082  3a -> 16a                                                 
    0.010103  3a -> 32a                                                 
    0.398053  2a -> 7a                                                  
    0.089083  2a -> 14a                                                 
    0.010103  2a -> 30a                                                 
   -0.796103  4a -> 6a                                                  
   -0.178165  4a -> 15a                                                 
   -0.020205  4a -> 31a                                                 
 
 Starting right-hand LR-CC iteration for root                      3 ...
 ======================================================================
 Norm of residual vector:     0.07289105      Convergence:   1.00000000
 CPU time [min]:     1.437                   Wall time [min]:     0.533
 
 Iteration  1  CI energy:   -53.91167200  Energy decrease:   0.49172828
 ======================================================================
 Norm of residual vector:     0.07774333      Convergence:   0.44826915
 CPU time [min]:     1.501                   Wall time [min]:     0.535
 
 Iteration  2  CI energy:   -53.91392112  Energy decrease:   0.00224912
 ======================================================================
 Norm of residual vector:     0.03620044      Convergence:   0.23434318
 CPU time [min]:     1.620                   Wall time [min]:     0.539
 
 Iteration  3  CI energy:   -53.93115791  Energy decrease:   0.01723679
 ======================================================================
 Norm of residual vector:     0.00690199      Convergence:   0.04238923
 CPU time [min]:     1.642                   Wall time [min]:     0.540
 
 Iteration  4  CI energy:   -53.93222366  Energy decrease:   0.00106576
 ======================================================================
 Norm of residual vector:     0.00311240      Convergence:   0.01613256
 CPU time [min]:     1.664                   Wall time [min]:     0.540
 
 Iteration  5  CI energy:   -53.93230940  Energy decrease:   0.00008574
 ======================================================================
 Norm of residual vector:     0.00069257      Convergence:   0.00329437
 CPU time [min]:     1.689                   Wall time [min]:     0.541
 
 Iteration  6  CI energy:   -53.93231502  Energy decrease:   0.00000562
 ======================================================================
 Norm of residual vector:     0.00004702      Convergence:   0.00031916
 CPU time [min]:     1.714                   Wall time [min]:     0.542
 
 Iteration  7  CI energy:   -53.93231516  Energy decrease:   0.00000014
 ======================================================================
 Norm of residual vector:     0.00000536      Convergence:   0.00003440
 CPU time [min]:     1.740                   Wall time [min]:     0.543
 
 Iteration  8  CI energy:   -53.93231515  Energy decrease:   3.9781E-09
 ======================================================================
 Norm of residual vector:     0.00000043      Convergence:   0.00000402
 CPU time [min]:     1.765                   Wall time [min]:     0.544
 
 Iteration  9  CI energy:   -53.93231515  Energy decrease:   3.9122E-10
 ======================================================================
 Norm of residual vector:     0.00000005      Convergence:   0.00000036
 CPU time [min]:     1.794                   Wall time [min]:     0.545
 
 Iteration 10  CI energy:   -53.93231515  Energy decrease:   1.3785E-12
 ======================================================================
 
 Iteration has converged in 10 steps.
 
 Final results:
 Total LR-CCS energy [au]:           -53.932315152248
 Excitation energy [eV]:          12.8189
 Excitation energy [cm^-1]:   103391.24
 Absorption wavelength [nm]:      96.72
 Spin multiplicity:                     2
 
 
 
 Dominant CI coefficients
 Printing threshold:  1.00E-02
 
   -0.029056  1a -> 9a                                                  
   -0.796103  3a -> 8a                                                  
   -0.178165  3a -> 16a                                                 
   -0.020205  3a -> 32a                                                 
    0.398053  2a -> 7a                                                  
    0.089083  2a -> 14a                                                 
[...]
   -0.014151  2a 3a -> 7a 32a                                           
   -0.030314  1a 4a -> 5a 6a                                            
   -0.041193  1a 4a -> 6a 17a                                           
   -0.012646  1a 4a -> 6a 25a                                           
    0.015257  1a 4a -> 6a 42a                                           
   -0.025096  3a 4a -> 6a 8a                                            
   -0.033966  3a 4a -> 8a 15a                                           
   -0.075318  3a 4a -> 6a 16a                                           
    0.010247  3a 4a -> 5a 27a                                           
   -0.016228  3a 4a -> 8a 31a                                           
   -0.030380  3a 4a -> 6a 32a                                           
   -0.025095  2a 4a -> 6a 7a                                            
   -0.075318  2a 4a -> 6a 14a                                           
   -0.033967  2a 4a -> 7a 15a                                           
    0.010248  2a 4a -> 5a 29a                                           
   -0.030380  2a 4a -> 6a 30a                                           
   -0.016229  2a 4a -> 7a 31a                                           
    0.012797  2a 3a 4a -> 6a 14a 16a                                    
 
 Starting right-hand LR-CC iteration for root                      3 ...
 ======================================================================
 Norm of residual vector:     0.01056768      Convergence:   1.00000000
 CPU time [min]: 21359.562                   Wall time [min]:   709.248
 
 Iteration  1  CI energy:   -54.08468246  Energy decrease:   0.44109951
 ======================================================================
 Norm of residual vector:     0.00205743      Convergence:   0.00170393
 CPU time [min]: 22492.729                   Wall time [min]:   747.195
 
 Iteration  2  CI energy:   -54.08469034  Energy decrease:   0.00000788
 ======================================================================
 Norm of residual vector:     0.00053082      Convergence:   0.00040152
 CPU time [min]: 23636.716                   Wall time [min]:   785.284
 
 Iteration  3  CI energy:   -54.08468498  Energy decrease:   0.00000536
 ======================================================================
 Norm of residual vector:     0.00019797      Convergence:   0.00016138
 CPU time [min]: 24779.663                   Wall time [min]:   823.108
 
 Iteration  4  CI energy:   -54.08467607  Energy decrease:   0.00000891
 ======================================================================
 Norm of residual vector:     0.00009397      Convergence:   0.00008640
 CPU time [min]: 25920.594                   Wall time [min]:   860.894
 
 Iteration  5  CI energy:   -54.08467310  Energy decrease:   0.00000297
 ======================================================================
 Norm of residual vector:     0.00002903      Convergence:   0.00002721
 CPU time [min]: 27067.725                   Wall time [min]:   898.900
 
 Iteration  6  CI energy:   -54.08467232  Energy decrease:   0.00000078
 ======================================================================
 Norm of residual vector:     0.00001008      Convergence:   0.00000873
 CPU time [min]: 28217.525                   Wall time [min]:   936.975
 
 Iteration  7  CI energy:   -54.08467222  Energy decrease:   0.00000009
 ======================================================================
 Norm of residual vector:     0.00000373      Convergence:   0.00000320
 CPU time [min]: 29367.597                   Wall time [min]:   975.097
 
 Iteration  8  CI energy:   -54.08467215  Energy decrease:   0.00000007
 ======================================================================
 Norm of residual vector:     0.00000150      Convergence:   0.00000125
 CPU time [min]: 30531.268                   Wall time [min]:  1013.962
 
 Iteration  9  CI energy:   -54.08467213  Energy decrease:   0.00000002
 ======================================================================
 Norm of residual vector:     0.00000061      Convergence:   0.00000068
 CPU time [min]: 31698.908                   Wall time [min]:  1052.696
 
 Iteration 10  CI energy:   -54.08467213  Energy decrease:   2.8481E-09
 ======================================================================
 Norm of residual vector:     0.00000033      Convergence:   0.00000037
 CPU time [min]: 32867.089                   Wall time [min]:  1091.574
 
 Iteration 11  CI energy:   -54.08467213  Energy decrease:   1.6075E-09
 ======================================================================
 Norm of residual vector:     0.0000E+00      Convergence:   1.3107E-07
 CPU time [min]: 34033.049                   Wall time [min]:  1130.535
 
 Iteration 12  CI energy:   -54.08467213  Energy decrease:   1.5266E-09
 ======================================================================
 
 Iteration has converged in 12 steps.
 
 Final results:
 Total LR-CCSDTQP energy [au]:       -54.084672128165
 Excitation energy [eV]:          12.0032
 Excitation energy [cm^-1]:    96812.43
 Absorption wavelength [nm]:     103.29
 Spin multiplicity:                     2
 
 
 
 Dominant CI coefficients
 Printing threshold:  1.00E-02
 
    0.019195  1a -> 9a                                                  
    0.774623  3a -> 8a                                                  
    0.154010  3a -> 16a                                                 
    0.016214  3a -> 32a                                                 
   -0.387322  2a -> 7a                                                  
   -0.077007  2a -> 14a                                                 
   -0.387302  4a -> 6a                                                  
   -0.077003  4a -> 15a                                                 
   -0.049031  1a 1b -> 8a 3b                                            
    0.024516  1a 1b -> 7a 2b                                            
   -0.023026  3a 1b -> 5a 3b                                            
   -0.012653  3a 1b -> 8a 51b                                           
    0.011513  2a 1b -> 5a 2b                                            
    0.011890  2a 1b -> 8a 53b                                           
    0.011890  4a 1b -> 8a 52b                                           
    0.073841  1a 1b -> 8a 8b                                            
    0.013214  1a 1b -> 16a 8b                                           
    0.048044  1a 1b -> 8a 16b                                           
    0.011525  1a 1b -> 8a 32b                                           
   -0.036921  1a 1b -> 7a 7b                                            
   -0.024023  1a 1b -> 7a 14b                                           
    0.024515  1a 1b -> 6a 4b                                            
   -0.036919  1a 1b -> 6a 6b                                            
   -0.024022  1a 1b -> 6a 15b                                           
    0.029330  3a 1b -> 5a 8b                                            
   -0.010928  3a 1b -> 9a 8b                                            
   -0.012923  3a 1b -> 17a 8b                                           
    0.011257  3a 1b -> 5a 16b                                           
   -0.046488  3a 1b -> 8a 5b                                            
    0.054611  3a 1b -> 8a 17b                                           
    0.014705  3a 1b -> 8a 26b                                           
   -0.015129  3a 1b -> 8a 42b                                           
    0.011294  3a 1b -> 13a 7b                                           
    0.011294  3a 1b -> 12a 6b                                           
   -0.014665  2a 1b -> 5a 7b                                            
   -0.016081  2a 1b -> 8a 28b                                           
    0.023245  2a 1b -> 7a 5b                                            
   -0.027306  2a 1b -> 7a 17b                                           
    0.011513  4a 1b -> 5a 4b                                            
   -0.014665  4a 1b -> 5a 6b                                            
   -0.016081  4a 1b -> 8a 27b                                           
    0.023243  4a 1b -> 6a 5b                                            
   -0.027305  4a 1b -> 6a 17b                                           
   -0.030314  1a 3a -> 5a 8a                                            
   -0.041193  1a 3a -> 8a 17a                                           
    0.011742  1a 3a -> 8a 26a                                           
    0.015257  1a 3a -> 8a 42a                                           
    0.015158  1a 2a -> 5a 7a                                            
    0.020597  1a 2a -> 7a 17a                                           
    0.025095  2a 3a -> 7a 8a                                            
   -0.075318  2a 3a -> 8a 14a                                           
   -0.033967  2a 3a -> 7a 16a                                           
    0.010248  2a 3a -> 5a 28a                                           
   -0.030380  2a 3a -> 8a 30a                                           
   -0.016229  2a 3a -> 7a 32a                                           
    0.015157  1a 4a -> 5a 6a                                            
    0.020596  1a 4a -> 6a 17a                                           
   -0.025096  3a 4a -> 6a 8a                                            
    0.075318  3a 4a -> 8a 15a                                           
    0.033965  3a 4a -> 6a 16a                                           
   -0.010247  3a 4a -> 5a 27a                                           
    0.030380  3a 4a -> 8a 31a                                           
    0.016228  3a 4a -> 6a 32a                                           
    0.050191  2a 4a -> 6a 7a                                            
    0.041351  2a 4a -> 6a 14a                                           
   -0.041353  2a 4a -> 7a 15a                                           
    0.014151  2a 4a -> 6a 30a                                           
   -0.014151  2a 4a -> 7a 31a                                           
   -0.012797  2a 3a 4a -> 8a 14a 15a                                    
 
 Starting right-hand LR-CC iteration for root                      4 ...
 ======================================================================
 Norm of residual vector:     0.01056768      Convergence:   1.00000000
 CPU time [min]: 35173.588                   Wall time [min]:  1168.666
 
 Iteration  1  CI energy:   -54.08468246  Energy decrease:   0.44109951
 ======================================================================
 Norm of residual vector:     0.00205747      Convergence:   0.00170392
 CPU time [min]: 36308.417                   Wall time [min]:  1206.274
 
 Iteration  2  CI energy:   -54.08469034  Energy decrease:   0.00000788
 ======================================================================
 Norm of residual vector:     0.00053082      Convergence:   0.00040152
 CPU time [min]: 37448.447                   Wall time [min]:  1243.976
 
 Iteration  3  CI energy:   -54.08468498  Energy decrease:   0.00000536
 ======================================================================
 Norm of residual vector:     0.00019798      Convergence:   0.00016138
 CPU time [min]: 38575.625                   Wall time [min]:  1281.327
 
 Iteration  4  CI energy:   -54.08467607  Energy decrease:   0.00000891
 ======================================================================
 Norm of residual vector:     0.00009398      Convergence:   0.00008640
 CPU time [min]: 39720.273                   Wall time [min]:  1319.308
 
 Iteration  5  CI energy:   -54.08467310  Energy decrease:   0.00000297
 ======================================================================
 Norm of residual vector:     0.00002904      Convergence:   0.00002721
 CPU time [min]: 40857.035                   Wall time [min]:  1356.960
 
 Iteration  6  CI energy:   -54.08467232  Energy decrease:   0.00000078
 ======================================================================
 Norm of residual vector:     0.00001008      Convergence:   0.00000874
 CPU time [min]: 42006.923                   Wall time [min]:  1395.087
 
 Iteration  7  CI energy:   -54.08467222  Energy decrease:   0.00000009
 ======================================================================
 Norm of residual vector:     0.00000373      Convergence:   0.00000319
 CPU time [min]: 43159.030                   Wall time [min]:  1433.492
 
 Iteration  8  CI energy:   -54.08467215  Energy decrease:   0.00000007
 ======================================================================
 Norm of residual vector:     0.00000149      Convergence:   0.00000121
 CPU time [min]: 44340.762                   Wall time [min]:  1473.496
 
 Iteration  9  CI energy:   -54.08467213  Energy decrease:   0.00000002
 ======================================================================
 Norm of residual vector:     0.00000059      Convergence:   0.00000049
 CPU time [min]: 45519.868                   Wall time [min]:  1513.526
 
 Iteration 10  CI energy:   -54.08467213  Energy decrease:   2.8913E-09
 ======================================================================
 Norm of residual vector:     0.00000022      Convergence:   0.00000021
 CPU time [min]: 46684.843                   Wall time [min]:  1552.140
 
 Iteration 11  CI energy:   -54.08467213  Energy decrease:   2.4795E-09
 ======================================================================
 Norm of residual vector:     0.0000E+00      Convergence:   1.2175E-07
 CPU time [min]: 47854.411                   Wall time [min]:  1591.030
 
 Iteration 12  CI energy:   -54.08467213  Energy decrease:   9.9440E-10
 ======================================================================
 
 Iteration has converged in 12 steps.
 
 Final results:
 Total LR-CCSDTQP energy [au]:       -54.084672127754
 Excitation energy [eV]:          12.0032
 Excitation energy [cm^-1]:    96812.43
 Absorption wavelength [nm]:     103.29
 Spin multiplicity:                     2
 
 Dominant CI coefficients
 Printing threshold:  1.00E-02
 
    0.012280  1a -> 9a                                                  
   -0.015074  1a -> 10a                                                 
    0.387316  3a -> 8a                                                  
    0.077006  3a -> 16a                                                 
   -0.774624  2a -> 7a                                                  
   -0.154010  2a -> 14a                                                 
   -0.016214  2a -> 30a                                                 
    0.387307  4a -> 6a                                                  
    0.077004  4a -> 15a                                                 
   -0.024516  1a 1b -> 8a 3b                                            
    0.049031  1a 1b -> 7a 2b                                            
   -0.011513  3a 1b -> 5a 3b                                            
   -0.011890  3a 1b -> 7a 53b                                           
    0.023026  2a 1b -> 5a 2b                                            
   -0.011890  4a 1b -> 7a 54b                                           
    0.036921  1a 1b -> 8a 8b                                            
    0.024023  1a 1b -> 8a 16b                                           
   -0.073841  1a 1b -> 7a 7b                                            
   -0.013214  1a 1b -> 14a 7b                                           
   -0.048044  1a 1b -> 7a 14b                                           
   -0.011525  1a 1b -> 7a 30b                                           
   -0.024515  1a 1b -> 6a 4b                                            
    0.036920  1a 1b -> 6a 6b                                            
    0.024022  1a 1b -> 6a 15b                                           
    0.014665  3a 1b -> 5a 8b                                            
   -0.023244  3a 1b -> 8a 5b                                            
    0.027306  3a 1b -> 8a 17b                                           
    0.016081  3a 1b -> 7a 28b                                           
   -0.029330  2a 1b -> 5a 7b                                            
    0.012923  2a 1b -> 17a 7b                                           
   -0.011257  2a 1b -> 5a 14b                                           
    0.046488  2a 1b -> 7a 5b                                            
   -0.054611  2a 1b -> 7a 17b                                           
   -0.016159  2a 1b -> 7a 25b                                           
    0.015129  2a 1b -> 7a 42b                                           
   -0.011294  2a 1b -> 13a 8b                                           
   -0.011294  2a 1b -> 11a 6b                                           
   -0.011513  4a 1b -> 5a 4b                                            
    0.014665  4a 1b -> 5a 6b                                            
    0.016081  4a 1b -> 7a 29b                                           
   -0.023244  4a 1b -> 6a 5b                                            
    0.027305  4a 1b -> 6a 17b                                           
   -0.015157  1a 3a -> 5a 8a                                            
   -0.020597  1a 3a -> 8a 17a                                           
    0.030314  1a 2a -> 5a 7a                                            
    0.041193  1a 2a -> 7a 17a                                           
    0.010161  1a 2a -> 7a 26a                                           
   -0.015257  1a 2a -> 7a 42a                                           
   -0.025095  2a 3a -> 7a 8a                                            
   -0.033967  2a 3a -> 8a 14a                                           
   -0.075318  2a 3a -> 7a 16a                                           
    0.010248  2a 3a -> 5a 28a                                           
   -0.016229  2a 3a -> 8a 30a                                           
   -0.030380  2a 3a -> 7a 32a                                           
   -0.015157  1a 4a -> 5a 6a                                            
   -0.020596  1a 4a -> 6a 17a                                           
   -0.050191  3a 4a -> 6a 8a                                            
    0.041352  3a 4a -> 8a 15a                                           
   -0.041351  3a 4a -> 6a 16a                                           
    0.014151  3a 4a -> 8a 31a                                           
   -0.014151  3a 4a -> 6a 32a                                           
    0.025096  2a 4a -> 6a 7a                                            
   -0.033966  2a 4a -> 6a 14a                                           
   -0.075318  2a 4a -> 7a 15a                                           
    0.010247  2a 4a -> 5a 29a                                           
   -0.016228  2a 4a -> 6a 30a                                           
   -0.030380  2a 4a -> 7a 31a                                           
    0.012797  2a 3a 4a -> 7a 15a 16a                                    
 
 ************************ 2018-07-07 08:14:55 *************************
                      Normal termination of mrcc.
 **********************************************************************
--executable dmrcc finished with status     0 in   112290.48 seconds (walltime).
  The final electronic energy is       -54.084672127753699 a.u. 
  This computation required                       112334.22 seconds (walltime).
--- SharcNET Job Epilogue ---
Job completed successfully.
               jobid: 1552143
               resid: 3029745
         exit status: 0
      allocated time: 112335
           user time: 2839860
         system time: 527901
peak rss=9932169216; peak vsz=9932169216 (bytes)
atime=112335; utime=2839860; stime=527901; exit=0
