 --invoking executable--
/home/nike/cfour_v2.00beta/bin/xjoda


   *************************************************************************
         <<<     CCCCCC     CCCCCC   |||     CCCCCC     CCCCCC   >>>
       <<<      CCC        CCC       |||    CCC        CCC         >>>
      <<<      CCC        CCC        |||   CCC        CCC            >>>
    <<<        CCC        CCC        |||   CCC        CCC              >>>
      <<<      CCC        CCC        |||   CCC        CCC            >>>
       <<<      CCC        CCC       |||    CCC        CCC         >>>
         <<<     CCCCCC     CCCCCC   |||     CCCCCC     CCCCCC   >>>
   *************************************************************************

     ****************************************************************
     * CFOUR Coupled-Cluster techniques for Computational Chemistry *
     ****************************************************************
 

   Department of Chemistry                Institut fuer Physikalische Chemie
   University of Texas at Austin          Universitaet Mainz
   Austin, TX  78712, USA                 D-55099 Mainz, Germany
 
                       Version 2.00beta
 
                     wob147                                            
                     Sun Jul  8 02:22:11 EDT 2018                      
                     integer*8 version is running
 
********************************************************************************
*                          Input from ZMAT file                                *
********************************************************************************
TITLE                                                                           
N                                                                               
                                                                                
*ACES2(CALC=CCSD                                                                
FROZEN_CORE=ON                                                                  
#DROPMO=1                                                                       
INPUT_MRCC=OFF                                                                  
CC_PROG=MRCC                                                                    
XFORM_TOL=18                                                                    
SAVE_INTS=ON                                                                    
SCF_EXPORDER=6                                                                  
SCF_EXPSTART=5                                                                  
#SCF_DAMPING=1000                                                               
SCF_EXTRAPOLATION=ON                                                            
SCF_CONV=10                                                                     
SCF_MAXCYC=9999                                                                 
CC_CONV=10                                                                      
CC_MAXCYC=999                                                                   
T3_EXTRAPOL=ON                                                                  
REFERENCE=ROHF                                                                  
CHARGE=+0                                                                       
MULT=4                                                                          
ABCDTYPE=STANDARD                                                               
OCCUPATION=2-1-1-0-1-0-0-0/2-0-0-0-0-0-0-0                                      
MEM=32                                                                          
MEM_UNIT=GB                                                                     
BASIS=SPECIAL)                                                                  
                                                                                
N:aV5Z-EMSL                                                                     
                                                                                
********************************************************************************
  @GTFLGS-W, Keyword #DROPMO not known and is ignored.
  @GTFLGS-W, Keyword #SCF_DAMPING not known and is ignored.
    -------------------------------------------------------------------
                    CFOUR Control Parameters 
    -------------------------------------------------------------------
        External           Internal           Value            Units
          Name               Name
    -------------------------------------------------------------------
       ABCDTYPE             IABCDT         STANDARD     [  0]   ***   
       ANHARMONIC           IANHAR         OFF          [  0]   ***   
       ANH_ALGORIT          IANALG         STANDARD     [  0]   ***   
       ANH_DERIVAT          IANDER         SECOND       [  1]   ***   
       ANH_STEPSIZ          ICUBST             50000          x 10-6  
       ANH_SYMMETR          IANHSM         ABELIAN      [  0]   ***   
       AO_LADDERS           IAOLAD         SINGLEPASS   [  1]   ***   
       BASIS                IBASIS         SPECIAL      [  0]   ***   
       BREIT                IBREIT         OFF          [  0]   ***   
       BRUCK_CONV           IBRTOL          10D-  4             ***   
       BRUECKNER            IBRKNR             OFF      [  0]   ***   
       BUFFERSIZE           IBUFFS            600               ***   
       CACHE_RECS           ICHREC             10               ***   
       CALCLEVEL            ICLLVL           CCSD       [ 10]   ***   
       CCORBOPT             ICCORB             OFF      [  0] x 0.01  
       CC_CONV              ICCCNV          10D- 10             ***   
       CC_EXPORDER          ICCEOR              5               ***   
       CC_EXTRAPOL          ICCEXT             DIIS     [  1]   ***   
       CC_MAXCYC            ICCCYC            999              cycles 
       CC_PROGRAM           ICCPRO         MRCC         [  2]   ***   
       CHARGE               ICHRGE              0               ***   
       CHOLESKY             ICHOLE         OFF          [  0]   ***   
       CIS_CONV             ICISTL              5               ***   
       COMM_SIZE            IPSIZE            ***               ***   
       CONSTANT             ICONST         OLD          [  1]   ***   
       CONTINUUM            ICONTU         NONE         [  0]   ***   
       CONTRACTION          ICNTYP          GENERAL     [  1]   ***   
       COORDINATES          ICOORD         INTERNAL     [  0]   ***   
       CPHF_CONVER          ICPHFT          10D- 16             ***   
       CPHF_MAXCYC          ICPHFC             64              cycles 
       CUBIC                ICUBIC         OFF          [  0]   ***   
       CURVILINEAR          ICURVY            OFF       [  0]   ***   
       DBOC                 IDBOC          OFF          [  0]   ***   
       DCT                  IDCT           OFF          [  0]   ***   
       DERIV_LEV            IDRLVL            ZERO      [  0]   ***   
       DIAG_MRCC            IEOMST          10D-  0             ***   
       DIFF_TYPE            IDIFTY         RELAXED      [  0]   ***   
       DIRECT               IDIRCT         OFF          [  0]   ***   
       DROPMO               IDRPMO      NONE         
       ECP                  IECP           OFF          [  0]   ***   
       EIGENVECTOR          IVEC                1               ***   
       EL_ANHARM            IELANH         OFF          [  0]   ***   
       EOMFOLLOW            IEOMSR         ENERGY       [  0]   ***   
       EOM_MRCC             IMRCCE         NEW          [  1]   ***   
       EOM_NONIT            EOMNON         OFF          [  0]   ***   
       EOM_NSING            IEOMSI          10D-  0             ***   
       EOM_NSTATES          IMRCCD         DAVIDSON     [  0]   ***   
       EOM_NTRIP            IEOMTR          10D-  0             ***   
       EOM_ORDER            IEXORD         ENERGY       [  0]   ***   
       ESTATE_CONV          IEXTOL          10D-  5             ***   
       ESTATE_DIAG          IEXDIG         ITERATIVE    [  0]   ***   
       ESTATE_LOCK          IESLOC         ON           [  1]   ***   
       ESTATE_MAXC          IEXMXC             20               ***   
       ESTATE_PROP          IEXPRP         OFF          [  0]   ***   
       EVAL_HESS            IRECAL              0            # of cyc.
       EXCITATION           IEXCIT              0               ***   
       EXCITE               IEXCIT         NONE         [  0]   ***   
       FCGRADNEW            IFCGNW         OFF          [  0]   ***   
       FC_FIELD             IFINFC              0             x 10-6  
       FD_CALTYPE           IFDCAL         GRADONLY     [  0]   ***   
       FD_PROJECT           IFDPRJ         OFF          [  1]   ***   
       FD_STEPSIZE          IDISFD              0            10-4 bohr
       FD_USEGROUP          IFDGRP         FULL         [  0]   ***   
       FILE_RECSIZ          IFLREC              4096           words  
       FINITE_PERT          IFIPER              0             x 10-6  
       FIXGEOM              IFIXGM         OFF          [  0]   ***   
       FOCK                 IFOCK          AO           [  1]   ***   
       FREQ_ALGORI          IVIALG         STANDARD     [  0]   ***   
       FROZEN_CORE          IFROCO         ON           [  1]   ***   
       FROZEN_VIRT          IFROVI         OFF          [  0]   ***   
       GAMMA_ABCD           IGABCD         STORE        [  0]   ***   
       GAMMA_ABCI           IGABCI         STORE        [  0]   ***   
       GENBAS_1             IGNBS1              0               ***   
       GENBAS_2             IGNBS2              0               ***   
       GENBAS_3             IGNBS3              0               ***   
       GENBAS_4             IGNBS4              0               ***   
       GEO_CONV             ICONTL              5              H/bohr 
       GEO_MAXCYC           IOPTCY             50               ***   
       GEO_MAXSTEP          IMXSTP            300            millibohr
       GEO_METHOD           INR            SINGLE_POINT [  5]   ***   
       GIAO                 IGIAO          OFF          [  1]   ***   
       GIMIC                IGIMIC         OFF          [  0]   ***   
       GRID                 IGRID          OFF          [  0]   ***   
       GRID_ALGO            IGALGO         SERIAL       [  0]   ***   
       GUESS                IGUESS            MOREAD    [  0]   ***   
       HBAR                 IHBAR              OFF      [  0]   ***   
       HESS_TYPE            IHESTP         SCF          [  0]   ***   
       HF2_FILE             IHF2Fl         USE          [  1]   ***   
       HFSTABILITY          ISTABL         OFF          [  0]   ***   
       INCORE               INCORE             OFF      [  0]   ***   
       INPUT_MRCC           IMRCC          OFF          [  0]   ***   
       INTEGRALS            INTTYP             VMOL     [  1]   ***   
       JODA_PRINT           IJPRNT              0               ***   
       LINDEP_TOL           ILINDP              8               ***   
       LINEQ_CONV           IZTACN          10D-  7           cycles  
       LINEQ_EXPOR          ILMAXD              5               ***   
       LINEQ_MAXCY          ILMAXC             50               ***   
       LINEQ_TYPE           ILTYPE         DIIS         [  1]   ***   
       LOCK_ORBOCC          ILOCOC             OFF      [  0]   ***   
       MEMORY_SIZE          IMEMSZ         *********           words  
       MEM_UNIT             IMEMU          GB           [  3]   ***   
       MRCC                 IMRCCC         OFF          [  0]   ***   
       MULTIPLICTY          IMULTP              4               ***   
       NEGEVAL              IDIE             ABORT      [  0]   ***   
       NEWNORM              INEWNO         OFF          [  0]   ***   
       NON-HF               INONHF              ON      [  1]   ***   
       NTOP_TAMP            ITOPT2             15               ***   
       NUC_MODEL            INUCMO         POINT        [  0]   ***   
       OCCUPATION           IOCCU  A   2,  1,  1,  0,  1,  0,  0,  0,
                                   B   2,  0,  0,  0,  0,  0,  0,  0,
       OPEN-SHELL           IOPEN          SPIN-ORBITAL [  0]   ***   
       ORBITALS             IORBTP         SEMICANONICAL[  1]   ***   
       PARALLEL             IPARAL         ON           [  1]   ***   
       PARA_INT             IPINTS         ON           [  1]   ***   
       PARA_PRINT           IPPRIN              0               ***   
       PERT_ORB             IPTORB         STANDARD     [  0]   ***   
       POINTS               IGRDFD              0               ***   
       PRINT                IPRNT               0               ***   
       PROPS                IPROPS             OFF      [  0]   ***   
       PROP_INTEGR          IINTYP         INTERNAL     [  0]   ***   
       PSI                  IPSI           OFF          [  0]   ***   
       QUARTIC              IQUART         OFF          [  0]   ***   
       RAMAN_INT            IRAMIN         OFF          [  0]   ***   
       RAMAN_ORB            IRAMRE         UNRELAXED    [  0]   ***   
       RDO                  IRDOFM             OFF      [  0]   ***   
       REFERENCE            IREFNC             ROHF     [  2]   ***   
       RELATIVIST           IRELAT         OFF          [  0]   ***   
       RELAX_DENS           IRDENS             OFF      [  0]   ***   
       RESET_FLAGS          IRESET             OFF      [  0]   ***   
       RESTART_CC           ICCRES         OFF          [  0]   ***   
       ROT_EVEC             ROTVEC              0               ***   
       SAVE_INTS            ISVINT              ON      [  1]   ***   
       SCALE_ON             ISTCRT              0               ***   
       SCF_CONV             ISCFCV          10D- 10             ***   
       SCF_DAMPING          IDAMP               0             x 10-3  
       SCF_EXPORDE          IRPPOR              6               ***   
       SCF_EXPSTAR          IRPPLS              5               ***   
       SCF_EXTRAPO          IRPP                ON      [  1]   ***   
       SCF_MAXCYC           ISCFCY            ***              cycles 
       SCF_NOSTOP           ISCFST         OFF          [  0]   ***   
       SCF_PRINT            ISCFPR              0               ***   
       SD_FIELD             IFINSD              0             x 10-6  
       SEQUENCE             ISEQUE         OFF          [  0]   ***   
       SOPERT               IPERSO         OFF          [  0]   ***   
       SPHERICAL            IDFGHI             ON       [  1]   ***   
       SPINORBIT            ISOCAL         OFF          [  0]   ***   
       SPINROTATIO          ISRCON         OFF          [  0]   ***   
       SPIN_FLIP            ISPFLP         OFF          [  0]   ***   
       SPIN_ORBIT           ISPORB         OFF          [  0]   ***   
       SPIN_SCAL            ISCSMP         OFF          [  0]   ***   
       SUBGROUP             ISUBGP         DEFAULT      [  0]   ***   
       SUBGRPAXIS           ISBXYZ         X            [  0]   ***   
       SYMMETRY             ISYM             ON         [  0]   ***   
       SYM_CHECK            ISYMCK         OVERRIDE     [  1]   ***   
       T3_EXTRAPOL          IT3EXT         ON           [  1]   ***   
       TAMP_SUM             IEVERY              5               ***   
       TESTSUITE            ITESTS         OFF          [  0]   ***   
       THERMOCH             ITHERM         OFF          [  0]   ***   
       TOL_CHOLESK          ITOLCH          10D-  4             ***   
       TRANGRAD             IRESRM         OFF          [  0]   ***   
       TRANS_INV            ITRAIN         USE          [  0]   ***   
       TREAT_PERT           ITREAT         SIMULTANEOUS [  0]   ***   
       UIJ_THRESHO          IUIJTH              1               ***   
       UNITS                IUNITS         ANGSTROM     [  0]   ***   
       UNOS                 IUNOS          OFF          [  0]   ***   
       UPDATE_HESS          IHUPDT         ON           [  1]   ***   
       VIBPHASE             ISETPH         STANDARD     [  0]   ***   
       VIBRATION            IVIB              NO        [  0]   ***   
       VIB_ALGORIT          IGEALG         STANDARD     [  0]   ***   
       VNATORB              IVNORB         OFF          [  0]   ***   
       VTRAN                IVTRAN         FULL/PARTIAL [  0]   ***   
       XFIELD               IXEFLD              0             x 10-6  
       XFORM_TOL            IXFTOL          10D- 18             ***   
       YFIELD               IYEFLD              0             x 10-6  
       ZFIELD               IZEFLD              0             x 10-6  
    -------------------------------------------------------------------
   1 entries found in Z-matrix 
   Job Title : TITLE                                                                           
  1  N          7    14.00307
 factor:   60.1997200000000     
   Rotational constants (in cm-1): 

   Rotational constants (in MHz): 

********************************************************************************
   The full molecular point group is I h .
   The largest Abelian subgroup of the full molecular point group is D2h .
   The computational point group is D2h .
********************************************************************************
  @GTFLGS-W, Keyword #DROPMO not known and is ignored.
  @GTFLGS-W, Keyword #SCF_DAMPING not known and is ignored.
  There is   1 frozen-core orbital.
  There is   1 frozen-core orbital.
  There are  127 basis functions.
 @GEOPT-W, Archive file not created for single-point calculation.
  @CHECKOUT-I, Total execution time (CPU/WALL):        0.10/       0.77 seconds.
--executable xjoda finished with status     0 in        1.15 seconds (walltime).
 --invoking executable--
/home/nike/cfour_v2.00beta/bin/xvmol
 Serial version of molecule started
********************************************************************************
                    Input from MOL file
********************************************************************************
INTGRL        1    0    1    0    0    0    0    0    0                         
         *** CFOUR Program System (Release V0.1) ***                            
TITLE                                                                           
    1    3 X  Y   Z   0.10E-08              0    0                              
   9999.00      3.00                                                            
          7.00000000    1    6    1    1    1    1    1    1                    
N #1   0.000000000000000   0.000000000000000   0.000000000000000                
   15    7                                                                      
   129200.000000000       2.500000000000000E-005 -6.000000000000000E-006        
  0.000000000000000E+000  0.000000000000000E+000  0.000000000000000E+000        
  0.000000000000000E+000  0.000000000000000E+000                                
   19350.0000000000       1.970000000000000E-004 -4.300000000000000E-005        
  0.000000000000000E+000  0.000000000000000E+000  0.000000000000000E+000        
  0.000000000000000E+000  0.000000000000000E+000                                
   4404.00000000000       1.032000000000000E-003 -2.270000000000000E-004        
  0.000000000000000E+000  0.000000000000000E+000  0.000000000000000E+000        
  0.000000000000000E+000  0.000000000000000E+000                                
   1248.00000000000       4.325000000000000E-003 -9.580000000000000E-004        
  0.000000000000000E+000  0.000000000000000E+000  0.000000000000000E+000        
  0.000000000000000E+000  0.000000000000000E+000                                
   408.000000000000       1.538000000000000E-002 -3.416000000000000E-003        
  0.000000000000000E+000  0.000000000000000E+000  0.000000000000000E+000        
  0.000000000000000E+000  0.000000000000000E+000                                
   148.200000000000       4.686700000000000E-002 -1.066700000000000E-002        
  0.000000000000000E+000  0.000000000000000E+000  0.000000000000000E+000        
  0.000000000000000E+000  0.000000000000000E+000                                
   58.5000000000000       0.120116000000000      -2.827900000000000E-002        
  0.000000000000000E+000  0.000000000000000E+000  0.000000000000000E+000        
  0.000000000000000E+000  0.000000000000000E+000                                
   24.5900000000000       0.245695000000000      -6.401999999999999E-002        
  0.000000000000000E+000  0.000000000000000E+000  0.000000000000000E+000        
  0.000000000000000E+000  0.000000000000000E+000                                
   10.8100000000000       0.361379000000000      -0.113932000000000             
  0.000000000000000E+000  0.000000000000000E+000  0.000000000000000E+000        
  0.000000000000000E+000  0.000000000000000E+000                                
   4.88200000000000       0.287283000000000      -0.146995000000000             
  0.000000000000000E+000  0.000000000000000E+000  0.000000000000000E+000        
  0.000000000000000E+000  0.000000000000000E+000                                
   2.19500000000000       7.017100000000000E-002 -7.251000000000000E-003        
   1.00000000000000       0.000000000000000E+000  0.000000000000000E+000        
  0.000000000000000E+000  0.000000000000000E+000                                
  0.871500000000000       1.831000000000000E-003  0.366183000000000             
  0.000000000000000E+000   1.00000000000000       0.000000000000000E+000        
  0.000000000000000E+000  0.000000000000000E+000                                
  0.350400000000000       8.350000000000000E-004  0.547908000000000             
  0.000000000000000E+000  0.000000000000000E+000   1.00000000000000             
  0.000000000000000E+000  0.000000000000000E+000                                
  0.139700000000000      -6.000000000000000E-006  0.216645000000000             
  0.000000000000000E+000  0.000000000000000E+000  0.000000000000000E+000        
   1.00000000000000       0.000000000000000E+000                                
  5.180000000000000E-002  0.000000000000000E+000  0.000000000000000E+000        
  0.000000000000000E+000  0.000000000000000E+000  0.000000000000000E+000        
  0.000000000000000E+000   1.00000000000000                                     
    9    6                                                                      
   147.000000000000       8.920000000000000E-004  0.000000000000000E+000        
  0.000000000000000E+000  0.000000000000000E+000  0.000000000000000E+000        
  0.000000000000000E+000                                                        
   34.7600000000000       7.082000000000000E-003  0.000000000000000E+000        
  0.000000000000000E+000  0.000000000000000E+000  0.000000000000000E+000        
  0.000000000000000E+000                                                        
   11.0000000000000       3.281600000000000E-002  0.000000000000000E+000        
  0.000000000000000E+000  0.000000000000000E+000  0.000000000000000E+000        
  0.000000000000000E+000                                                        
   3.99500000000000       0.108209000000000       0.000000000000000E+000        
  0.000000000000000E+000  0.000000000000000E+000  0.000000000000000E+000        
  0.000000000000000E+000                                                        
   1.58700000000000       0.248094000000000        1.00000000000000             
  0.000000000000000E+000  0.000000000000000E+000  0.000000000000000E+000        
  0.000000000000000E+000                                                        
  0.653300000000000       0.374513000000000       0.000000000000000E+000        
   1.00000000000000       0.000000000000000E+000  0.000000000000000E+000        
  0.000000000000000E+000                                                        
  0.268600000000000       0.348414000000000       0.000000000000000E+000        
  0.000000000000000E+000   1.00000000000000       0.000000000000000E+000        
  0.000000000000000E+000                                                        
  0.106700000000000       0.128340000000000       0.000000000000000E+000        
  0.000000000000000E+000  0.000000000000000E+000   1.00000000000000             
  0.000000000000000E+000                                                        
  3.690000000000000E-002  0.000000000000000E+000  0.000000000000000E+000        
  0.000000000000000E+000  0.000000000000000E+000  0.000000000000000E+000        
   1.00000000000000                                                             
    5    5                                                                      
   4.64700000000000        1.00000000000000       0.000000000000000E+000        
  0.000000000000000E+000  0.000000000000000E+000  0.000000000000000E+000        
   1.81300000000000       0.000000000000000E+000   1.00000000000000             
  0.000000000000000E+000  0.000000000000000E+000  0.000000000000000E+000        
  0.707000000000000       0.000000000000000E+000  0.000000000000000E+000        
   1.00000000000000       0.000000000000000E+000  0.000000000000000E+000        
  0.276000000000000       0.000000000000000E+000  0.000000000000000E+000        
  0.000000000000000E+000   1.00000000000000       0.000000000000000E+000        
  9.710000000000001E-002  0.000000000000000E+000  0.000000000000000E+000        
  0.000000000000000E+000  0.000000000000000E+000   1.00000000000000             
    4    4                                                                      
   2.94200000000000        1.00000000000000       0.000000000000000E+000        
  0.000000000000000E+000  0.000000000000000E+000                                
   1.20400000000000       0.000000000000000E+000   1.00000000000000             
  0.000000000000000E+000  0.000000000000000E+000                                
  0.493000000000000       0.000000000000000E+000  0.000000000000000E+000        
   1.00000000000000       0.000000000000000E+000                                
  0.192000000000000       0.000000000000000E+000  0.000000000000000E+000        
  0.000000000000000E+000   1.00000000000000                                     
    3    3                                                                      
   2.51100000000000        1.00000000000000       0.000000000000000E+000        
  0.000000000000000E+000                                                        
  0.942000000000000       0.000000000000000E+000   1.00000000000000             
  0.000000000000000E+000                                                        
  0.436000000000000       0.000000000000000E+000  0.000000000000000E+000        
   1.00000000000000                                                             
    2    2                                                                      
   1.76800000000000        1.00000000000000       0.000000000000000E+000        
  0.788000000000000       0.000000000000000E+000   1.00000000000000             
FINISH                                                                          
 
********************************************************************************
 One- and two-electron integrals over symmetry-adapted AOs are calculated.

  Spherical harmonics are used.
  
  Integrals less than  0.10E-13 are neglected.

  Nuclear repulsion energy :    0.0000000000 a.u.
  required memory for a1 array                8620474  words 
  required memory for a2 array               10209364  words 
 @GETMEM-I,  Allocated     158 MB of main memory.
  @MOLECU-I, One electron integrals (CPU/WALL):        0.04/       0.08 seconds.
  @TWOEL-I,      97335 integrals of symmetry type  I I I I
  @TWOEL-I,     822037 integrals of symmetry type  I J I J
  @TWOEL-I,     493408 integrals of symmetry type  I I J J
  @TWOEL-I,    1897411 integrals of symmetry type  I J K L
  @TWOEL-I, Total number of 2-e integrals    3310191.
  @MOLECU-I, Two electron integrals (CPU/WALL):        5.93/       8.02 seconds.
  @CHECKOUT-I, Total execution time (CPU/WALL):        6.01/       8.21 seconds.
--executable xvmol finished with status     0 in        8.74 seconds (walltime).
 --invoking executable--
/home/nike/cfour_v2.00beta/bin/xvmol2ja
 @GETMEM-I,  Allocated   30517 MB of main memory.
  @CHECKOUT-I, Total execution time (CPU/WALL):        0.00/       0.10 seconds.
--executable xvmol2ja finished with status     0 in        0.34 seconds (walltime).
 --invoking executable--
/home/nike/cfour_v2.00beta/bin/xvscf
  There are  127 functions in the AO basis.

  There are 8 irreducible representations.

       Irrep        # of functions
         1                 26
         2                 20
         3                 20
         4                 11
         5                 20
         6                 11
         7                 11
         8                  8


  Parameters for SCF calculation: 
        SCF reference function: ROHF  
  Maximum number of iterations: 9999
     Full symmetry point group: I h 
     Computational point group: D2h 
        Initial density matrix: MOREAD                 
     SCF convergence tolerance: 10**(-10)
  DIIS convergence acceleration:  ON
          Latest start for DIIS:   5
                     DIIS order:   6

     Alpha population by irrep:   2    1    1    0    1    0    0    0
      Beta population by irrep:   2    0    0    0    0    0    0    0


  Memory information:    1077901 words required.
  Fock matrices are constructed from AO integral file.
 @GETMEM-I,  Allocated       8 MB of main memory.
  Initialization and symmetry analysis required      0.001 seconds.

 total no. of electrons in initial guess :  0.000000000000000E+000
 total no. of electrons in initial guess :  0.000000000000000E+000
  --------------------------------------------------------------------
  Iteration         Total Energy            Largest Density Difference
  --------------------------------------------------------------------
       0             0.000000000000000              0.0000000000D+00
   current occupation vector 
     2  1  1  0  1  0  0  0
     2  0  0  0  0  0  0  0
       1           -49.165256331419066              0.1068270327D+02
   current occupation vector 
     2  1  1  0  1  0  0  0
     2  0  0  0  0  0  0  0
       2           -51.268205582661089              0.1068254547D+02
   current occupation vector 
     2  1  1  0  1  0  0  0
     2  0  0  0  0  0  0  0
       3           -53.909217232784719              0.2090015584D+01
   current occupation vector 
     2  1  1  0  1  0  0  0
     2  0  0  0  0  0  0  0
       4           -52.221914402753633              0.2041367539D+01
   current occupation vector 
     2  1  1  0  1  0  0  0
     2  0  0  0  0  0  0  0
       5           -54.075059045968750              0.1711641579D+01
   current occupation vector 
     2  1  1  0  1  0  0  0
     2  0  0  0  0  0  0  0
       6           -54.358529259923138              0.6040428864D+00
   current occupation vector 
     2  1  1  0  1  0  0  0
     2  0  0  0  0  0  0  0
       7           -54.394771154438672              0.1602540336D+00
   current occupation vector 
     2  1  1  0  1  0  0  0
     2  0  0  0  0  0  0  0
       8           -54.396052582176956              0.1593113675D+00
   current occupation vector 
     2  1  1  0  1  0  0  0
     2  0  0  0  0  0  0  0
       9           -54.400743933469634              0.8764793219D-01
   current occupation vector 
     2  1  1  0  1  0  0  0
     2  0  0  0  0  0  0  0
      10           -54.400849341798370              0.7892401338D-02
   current occupation vector 
     2  1  1  0  1  0  0  0
     2  0  0  0  0  0  0  0
      11           -54.400855626429205              0.2449135701D-02
   current occupation vector 
     2  1  1  0  1  0  0  0
     2  0  0  0  0  0  0  0
      12           -54.400855630929570              0.6094292413D-04
   current occupation vector 
     2  1  1  0  1  0  0  0
     2  0  0  0  0  0  0  0
      13           -54.400855630940939              0.2740713673D-05
   current occupation vector 
     2  1  1  0  1  0  0  0
     2  0  0  0  0  0  0  0
      14           -54.400855630941138              0.5533139185D-06
   current occupation vector 
     2  1  1  0  1  0  0  0
     2  0  0  0  0  0  0  0
      15           -54.400855630941216              0.3379525571D-07
   current occupation vector 
     2  1  1  0  1  0  0  0
     2  0  0  0  0  0  0  0
      16           -54.400855630941244              0.2811753485D-08
   current occupation vector 
     2  1  1  0  1  0  0  0
     2  0  0  0  0  0  0  0

  SCF has converged.

 Density matrix saved to file den.dat
 total alpha spin electron number:   5.00000000000000     
 total  beta spin electron number:   2.00000000000000     
     E(ROHF)=       -54.400855630941287              0.7234035593D-10

  Eigenvector printing suppressed.


       The average multiplicity is    4.0000000
  The expectation value of S**2 is    3.7500000

 @PUTMOS-I, Writing converged MOs to NEWMOS. 
 @PUTMOS-I, Symmetry   1 Full Blocks  6 Partial Blocksize   2
 @PUTMOS-I, Symmetry   2 Full Blocks  5 Partial Blocksize   0
 @PUTMOS-I, Symmetry   3 Full Blocks  5 Partial Blocksize   0
 @PUTMOS-I, Symmetry   4 Full Blocks  2 Partial Blocksize   3
 @PUTMOS-I, Symmetry   5 Full Blocks  5 Partial Blocksize   0
 @PUTMOS-I, Symmetry   6 Full Blocks  2 Partial Blocksize   3
 @PUTMOS-I, Symmetry   7 Full Blocks  2 Partial Blocksize   3
 @PUTMOS-I, Symmetry   8 Full Blocks  2 Partial Blocksize   0
  @DMPJOB-I, Rotating orbitals to semicanonical basis.
             *** Eigenvalues correspond to new basis. ***

  @PRJDEN-I, Basis set contains h and/or higher angular momentum functions.
             Analysis of density matrix symmetry not available.
             Check irreps of the molecular orbitals in the full point group
             for presence of an asymmetric solution.

 
  ORBITAL EIGENVALUES (ALPHA)  (1H = 27.2113838 eV)

       MO #        E(hartree)               E(eV)           FULLSYM    COMPSYM
       ----   --------------------   --------------------   -------   ---------
    1     1         -15.6725832350        -426.4726778511      Ag        Ag (1)
    2     2          -1.1510451650         -31.3215317782      Ag        Ag (1)
    3    27          -0.5675908099         -15.4449313793     T1u       B2u (2)
    4    47          -0.5675908099         -15.4449313793     T1u       B3u (3)
    5    78          -0.5675908099         -15.4449313793     T1u       B1u (5)
  +++++++++++++++++++++++++++++++++++++++++++++++++++++++++++++++++++++++++++++
    6    48           0.0885108379           2.4085023814     T1u       B3u (3)
    7    79           0.0885108379           2.4085023814     T1u       B1u (5)
    8    28           0.0885108379           2.4085023814     T1u       B2u (2)
    9     3           0.0955705469           2.6006068344      Ag        Ag (1)
   10     4           0.2963046439           8.0628593935      Hg        Ag (1)
   11     5           0.2963046439           8.0628593935      Hg        Ag (1)
   12    67           0.2963046439           8.0628593935      Hg       B1g (4)
   13   109           0.2963046439           8.0628593935      Hg       B2g (7)
   14    98           0.2963046439           8.0628593935      Hg       B3g (6)
   15    29           0.4004710892          10.8973725176     T1u       B2u (2)
   16    80           0.4004710892          10.8973725176     T1u       B1u (5)
   17    49           0.4004710892          10.8973725176     T1u       B3u (3)
   18     6           0.5635244026          15.3342788119      Ag        Ag (1)
   19    50           0.7815030095          21.2657783463       u       B3u (3)
   20    81           0.7815030095          21.2657783463       u       B1u (5)
   21    30           0.7815030095          21.2657783463       u       B2u (2)
   22    82           0.7815030095          21.2657783463       u       B1u (5)
   23    51           0.7815030095          21.2657783463       u       B3u (3)
   24   120           0.7815030095          21.2657783463       u        Au (8)
   25    31           0.7815030095          21.2657783463       u       B2u (2)
   26   110           0.9308345954          25.3292974491      Hg       B2g (7)
   27    68           0.9308345954          25.3292974491      Hg       B1g (4)
   28    99           0.9308345954          25.3292974491      Hg       B3g (6)
   29     7           0.9308345954          25.3292974491      Hg        Ag (1)
   30     8           0.9308345954          25.3292974491      Hg        Ag (1)
   31    52           1.3237434432          36.0208909119     T1u       B3u (3)
   32    83           1.3237434432          36.0208909119     T1u       B1u (5)
   33    32           1.3237434432          36.0208909119     T1u       B2u (2)
   34     9           2.1533292623          58.5950690473       g        Ag (1)
   35    10           2.1533292623          58.5950690473       g        Ag (1)
   36    11           2.1533292623          58.5950690473       g        Ag (1)
   37   111           2.1533292623          58.5950690473       g       B2g (7)
   38   100           2.1533292623          58.5950690473       g       B3g (6)
   39    69           2.1533292623          58.5950690473       g       B1g (4)
   40   112           2.1533292623          58.5950690473       g       B2g (7)
   41   101           2.1533292623          58.5950690473       g       B3g (6)
   42    70           2.1533292623          58.5950690473       g       B1g (4)
   43    12           2.2077078656          60.0747860917      Ag        Ag (1)
   44    53           2.2968849504          62.5014179761       u       B3u (3)
   45   121           2.2968849504          62.5014179761       u        Au (8)
   46    54           2.2968849504          62.5014179761       u       B3u (3)
   47    33           2.2968849504          62.5014179761       u       B2u (2)
   48    84           2.2968849504          62.5014179761       u       B1u (5)
   49    34           2.2968849504          62.5014179761       u       B2u (2)
   50    85           2.2968849504          62.5014179761       u       B1u (5)
   51   113           2.4688799092          67.1816388146      Hg       B2g (7)
   52   102           2.4688799092          67.1816388146      Hg       B3g (6)
   53    13           2.4688799092          67.1816388146      Hg        Ag (1)
   54    71           2.4688799092          67.1816388146      Hg       B1g (4)
   55    14           2.4688799092          67.1816388146      Hg        Ag (1)
   56    55           3.8299740369         104.2188935366     T1u       B3u (3)
   57    86           3.8299740369         104.2188935366     T1u       B1u (5)
   58    35           3.8299740369         104.2188935366     T1u       B2u (2)
   59    36           4.7303340199         128.7189346111               B2u (2)
   60    56           4.7303340199         128.7189346111               B3u (3)
   61    87           4.7303340199         128.7189346111               B1u (5)
   62   122           4.7303340199         128.7189346111                Au (8)
   63    37           4.7303340199         128.7189346111               B2u (2)
   64    57           4.7303340199         128.7189346111               B3u (3)
   65    38           4.7303340199         128.7189346111               B2u (2)
   66    88           4.7303340199         128.7189346111               B1u (5)
   67   123           4.7303340199         128.7189346111                Au (8)
   68    58           4.7303340199         128.7189346111               B3u (3)
   69    89           4.7303340199         128.7189346111               B1u (5)
   70    15           5.6457350859         153.6282643650       g        Ag (1)
   71   114           5.6457350859         153.6282643650       g       B2g (7)
   72    16           5.6457350859         153.6282643650       g        Ag (1)
   73    17           5.6457350859         153.6282643650       g        Ag (1)
   74    72           5.6457350859         153.6282643650       g       B1g (4)
   75   115           5.6457350859         153.6282643650       g       B2g (7)
   76    73           5.6457350859         153.6282643650       g       B1g (4)
   77   103           5.6457350859         153.6282643650       g       B3g (6)
   78   104           5.6457350859         153.6282643650       g       B3g (6)
   79    39           5.7865675848         157.4605115469       u       B2u (2)
   80    59           5.7865675848         157.4605115469       u       B3u (3)
   81    90           5.7865675848         157.4605115469       u       B1u (5)
   82    60           5.7865675848         157.4605115469       u       B3u (3)
   83    40           5.7865675848         157.4605115469       u       B2u (2)
   84   124           5.7865675848         157.4605115469       u        Au (8)
   85    91           5.7865675848         157.4605115469       u       B1u (5)
   86    18           6.4960821092         176.7673835975      Hg        Ag (1)
   87    19           6.4960821092         176.7673835975      Hg        Ag (1)
   88   116           6.4960821092         176.7673835975      Hg       B2g (7)
   89   105           6.4960821092         176.7673835975      Hg       B3g (6)
   90    74           6.4960821092         176.7673835975      Hg       B1g (4)
   91    20           7.9633962796         216.6950326715      Ag        Ag (1)
   92    92          12.1768190319         331.3480963792     T1u       B1u (5)
   93    41          12.1768190319         331.3480963792     T1u       B2u (2)
   94    61          12.1768190319         331.3480963792     T1u       B3u (3)
   95    42          12.3751529296         336.7450361933               B2u (2)
   96    93          12.3751529296         336.7450361933               B1u (5)
   97   125          12.3751529296         336.7450361933                Au (8)
   98    43          12.3751529296         336.7450361933               B2u (2)
   99    62          12.3751529296         336.7450361933               B3u (3)
  100    63          12.3751529296         336.7450361933               B3u (3)
  101    94          12.3751529296         336.7450361933               B1u (5)
  102    64          12.3751529296         336.7450361933               B3u (3)
  103    95          12.3751529296         336.7450361933               B1u (5)
  104   126          12.3751529296         336.7450361933                Au (8)
  105    44          12.3751529296         336.7450361933               B2u (2)
  106    65          14.4894908521         394.2790969274       u       B3u (3)
  107    66          14.4894908521         394.2790969274       u       B3u (3)
  108    45          14.4894908521         394.2790969274       u       B2u (2)
  109    96          14.4894908521         394.2790969274       u       B1u (5)
  110   127          14.4894908521         394.2790969274       u        Au (8)
  111    46          14.4894908521         394.2790969274       u       B2u (2)
  112    97          14.4894908521         394.2790969274       u       B1u (5)
  113    21          14.6138948492         397.6643018409       g        Ag (1)
  114    75          14.6138948492         397.6643018409       g       B1g (4)
  115    22          14.6138948492         397.6643018409       g        Ag (1)
  116   117          14.6138948492         397.6643018409       g       B2g (7)
  117    76          14.6138948492         397.6643018409       g       B1g (4)
  118    23          14.6138948492         397.6643018409       g        Ag (1)
  119   118          14.6138948492         397.6643018409       g       B2g (7)
  120   106          14.6138948492         397.6643018409       g       B3g (6)
  121   107          14.6138948492         397.6643018409       g       B3g (6)
  122    77          17.4499204170         474.8364820884      Hg       B1g (4)
  123    24          17.4499204170         474.8364820884      Hg        Ag (1)
  124   108          17.4499204170         474.8364820884      Hg       B3g (6)
  125   119          17.4499204170         474.8364820884      Hg       B2g (7)
  126    25          17.4499204170         474.8364820884      Hg        Ag (1)
  127    26          46.2022886959        1257.2282110483      Ag        Ag (1)


 
  ORBITAL EIGENVALUES ( BETA)  (1H = 27.2113838 eV)

       MO #        E(hartree)               E(eV)           FULLSYM    COMPSYM
       ----   --------------------   --------------------   -------   ---------
    1     1         -15.5858874869        -424.1135665761      Ag        Ag (1)
    2     2          -0.7393378370         -20.1184056557      Ag        Ag (1)
  +++++++++++++++++++++++++++++++++++++++++++++++++++++++++++++++++++++++++++++
    3    78           0.0642615374           1.7486453592     T1u       B1u (5)
    4    47           0.0642615374           1.7486453592     T1u       B3u (3)
    5    27           0.0642615374           1.7486453592     T1u       B2u (2)
    6     3           0.1074183613           2.9230022584      Ag        Ag (1)
    7    48           0.1656009751           4.5062316933     T1u       B3u (3)
    8    79           0.1656009751           4.5062316933     T1u       B1u (5)
    9    28           0.1656009751           4.5062316933     T1u       B2u (2)
   10    98           0.3072997933           8.3620526242      Hg       B3g (6)
   11    67           0.3072997933           8.3620526242      Hg       B1g (4)
   12     4           0.3072997933           8.3620526242      Hg        Ag (1)
   13   109           0.3072997933           8.3620526242      Hg       B2g (7)
   14     5           0.3072997933           8.3620526242      Hg        Ag (1)
   15    29           0.5000108545          13.6059872751     T1u       B2u (2)
   16    80           0.5000108545          13.6059872751     T1u       B1u (5)
   17    49           0.5000108545          13.6059872751     T1u       B3u (3)
   18     6           0.6152449649          16.7416668818      Ag        Ag (1)
   19    81           0.7913135768          21.5327374600       u       B1u (5)
   20    30           0.7913135768          21.5327374600       u       B2u (2)
   21    82           0.7913135768          21.5327374600       u       B1u (5)
   22    31           0.7913135768          21.5327374600       u       B2u (2)
   23    50           0.7913135768          21.5327374600       u       B3u (3)
   24   120           0.7913135768          21.5327374600       u        Au (8)
   25    51           0.7913135768          21.5327374600       u       B3u (3)
   26    99           1.0094811855          27.4693799983      Hg       B3g (6)
   27     7           1.0094811855          27.4693799983      Hg        Ag (1)
   28     8           1.0094811855          27.4693799983      Hg        Ag (1)
   29   110           1.0094811855          27.4693799983      Hg       B2g (7)
   30    68           1.0094811855          27.4693799983      Hg       B1g (4)
   31    83           1.4474416145          39.3868893274     T1u       B1u (5)
   32    52           1.4474416145          39.3868893274     T1u       B3u (3)
   33    32           1.4474416145          39.3868893274     T1u       B2u (2)
   34     9           2.1705385980          59.0633588844       g        Ag (1)
   35    10           2.1705385980          59.0633588844       g        Ag (1)
   36    11           2.1705385980          59.0633588844       g        Ag (1)
   37   100           2.1705385980          59.0633588844       g       B3g (6)
   38   111           2.1705385980          59.0633588844       g       B2g (7)
   39    69           2.1705385980          59.0633588844       g       B1g (4)
   40   112           2.1705385980          59.0633588844       g       B2g (7)
   41    70           2.1705385980          59.0633588844       g       B1g (4)
   42   101           2.1705385980          59.0633588844       g       B3g (6)
   43    12           2.3016597756          62.6313475762      Ag        Ag (1)
   44    53           2.3460495582          63.8392549884       u       B3u (3)
   45    84           2.3460495582          63.8392549884       u       B1u (5)
   46   121           2.3460495582          63.8392549884       u        Au (8)
   47    85           2.3460495582          63.8392549884       u       B1u (5)
   48    33           2.3460495582          63.8392549884       u       B2u (2)
   49    34           2.3460495582          63.8392549884       u       B2u (2)
   50    54           2.3460495582          63.8392549884       u       B3u (3)
   51   102           2.6077174464          70.9596003265      Hg       B3g (6)
   52   113           2.6077174464          70.9596003265      Hg       B2g (7)
   53    13           2.6077174464          70.9596003265      Hg        Ag (1)
   54    71           2.6077174464          70.9596003265      Hg       B1g (4)
   55    14           2.6077174464          70.9596003265      Hg        Ag (1)
   56    86           3.9490562833         107.4592862499     T1u       B1u (5)
   57    55           3.9490562833         107.4592862499     T1u       B3u (3)
   58    35           3.9490562833         107.4592862499     T1u       B2u (2)
   59    36           4.7528694188         129.3321539993               B2u (2)
   60    56           4.7528694188         129.3321539993               B2u (3)
   61    37           4.7528694188         129.3321539993               B3u (2)
   62    87           4.7528694188         129.3321539993               B1u (5)
   63   122           4.7528694188         129.3321539993                Au (8)
   64    57           4.7528694188         129.3321539993               B3u (3)
   65    88           4.7528694188         129.3321539993               B1u (5)
   66    38           4.7528694188         129.3321539993               B2u (2)
   67    89           4.7528694188         129.3321539993               B1u (5)
   68    58           4.7528694188         129.3321539993               B3u (3)
   69   123           4.7528694188         129.3321539993                Au (8)
   70    15           5.6920967445         154.8898292526       g        Ag (1)
   71   114           5.6920967445         154.8898292526       g       B2g (7)
   72    16           5.6920967445         154.8898292526       g        Ag (1)
   73    17           5.6920967445         154.8898292526       g        Ag (1)
   74   115           5.6920967445         154.8898292526       g       B2g (7)
   75    72           5.6920967445         154.8898292526       g       B1g (4)
   76    73           5.6920967445         154.8898292526       g       B1g (4)
   77   103           5.6920967445         154.8898292526       g       B3g (6)
   78   104           5.6920967445         154.8898292526       g       B3g (6)
   79    39           5.8705919888         159.7469318547       u       B2u (2)
   80    59           5.8705919888         159.7469318547       u       B3u (3)
   81    40           5.8705919888         159.7469318547       u       B2u (2)
   82   124           5.8705919888         159.7469318547       u        Au (8)
   83    90           5.8705919888         159.7469318547       u       B1u (5)
   84    60           5.8705919888         159.7469318547       u       B3u (3)
   85    91           5.8705919888         159.7469318547       u       B1u (5)
   86    18           6.6228173032         180.2160236035      Hg        Ag (1)
   87    19           6.6228173032         180.2160236035      Hg        Ag (1)
   88   116           6.6228173032         180.2160236035      Hg       B2g (7)
   89   105           6.6228173032         180.2160236035      Hg       B3g (6)
   90    74           6.6228173032         180.2160236035      Hg       B1g (4)
   91    20           8.0515260396         219.0931653966      Ag        Ag (1)
   92    92          12.2572925968         333.5378934415     T1u       B1u (5)
   93    41          12.2572925968         333.5378934415     T1u       B2u (2)
   94    61          12.2572925968         333.5378934415     T1u       B3u (3)
   95    42          12.4187447780         337.9312307107               B2u (2)
   96   125          12.4187447780         337.9312307107                Au (8)
   97    93          12.4187447780         337.9312307107               B3u (5)
   98    62          12.4187447780         337.9312307107               B1u (3)
   99    43          12.4187447780         337.9312307107               B2u (2)
  100    63          12.4187447780         337.9312307107               B3u (3)
  101    94          12.4187447780         337.9312307107               B1u (5)
  102    64          12.4187447780         337.9312307107               B3u (3)
  103    95          12.4187447780         337.9312307107               B1u (5)
  104    44          12.4187447780         337.9312307107               B2u (2)
  105   126          12.4187447780         337.9312307107                Au (8)
  106    65          14.5702336457         396.4762200751       u       B3u (3)
  107    45          14.5702336457         396.4762200751       u       B2u (2)
  108    66          14.5702336457         396.4762200751       u       B3u (3)
  109    96          14.5702336457         396.4762200751       u       B1u (5)
  110   127          14.5702336457         396.4762200751       u        Au (8)
  111    97          14.5702336457         396.4762200751       u       B1u (5)
  112    46          14.5702336457         396.4762200751       u       B2u (2)
  113    21          14.6775588783         399.3966881716       g        Ag (1)
  114    75          14.6775588783         399.3966881716       g       B1g (4)
  115    22          14.6775588783         399.3966881716       g        Ag (1)
  116   117          14.6775588783         399.3966881716       g       B2g (7)
  117    76          14.6775588783         399.3966881716       g       B1g (4)
  118    23          14.6775588783         399.3966881716       g        Ag (1)
  119   106          14.6775588783         399.3966881716       g       B3g (6)
  120   118          14.6775588783         399.3966881716       g       B2g (7)
  121   107          14.6775588783         399.3966881716       g       B3g (6)
  122    77          17.5304011785         477.0264749794      Hg       B1g (4)
  123    24          17.5304011785         477.0264749794      Hg        Ag (1)
  124   108          17.5304011785         477.0264749794      Hg       B3g (6)
  125   119          17.5304011785         477.0264749794      Hg       B2g (7)
  126    25          17.5304011785         477.0264749794      Hg        Ag (1)
  127    26          46.2359414060        1258.1439478574      Ag        Ag (1)


  VSCF finished.

  @CHECKOUT-I, Total execution time (CPU/WALL):        0.80/       1.43 seconds.
--executable xvscf finished with status     0 in        1.73 seconds (walltime).
 --invoking executable--
/home/nike/cfour_v2.00beta/bin/xvtran
 @GETMEM-I,  Allocated   30517 MB of main memory.
  Full UHF integral transformation
  The following   1 alpha MOs will be dropped.
    1
  There are 126 active alpha molecular orbitals.
  The following   1 beta MOs will be dropped.
    1
  There are 126 active beta molecular orbitals.
  Transformation of IIII integrals :
  2 passes through the AO integral file were required.
       97335 AO integrals were read.
      126739 MO integrals (Spin case AAAA) were written to HF2AA.
      126739 MO integrals (Spin case BBBB) were written to HF2BB.
      252289 MO integrals (Spin case AABB) were written to HF2AB.
  Transformation of IIJJ integrals :
  2 passes through the AO integral file were required.
      493408 AO integrals were read.
      580716 MO integrals (Spin case AAAA) were written to HF2AA.
      580716 MO integrals (Spin case BBBB) were written to HF2BB.
     1161432 MO integrals (Spin case AABB) were written to HF2AB.
  Transformation of IJIJ integrals :
  2 passes through the AO integral file were required.
      822037 AO integrals were read.
     1041620 MO integrals (Spin case AAAA) were written to HF2AA.
     1041621 MO integrals (Spin case BBBB) were written to HF2BB.
     2076430 MO integrals (Spin case AABB) were written to HF2AB.
  Transformation of IJKL integrals :
  2 passes through the AO integral file were required.
     1897411 AO integrals were read.
     2287665 MO integrals (Spin case AAAA) were written to HF2AA.
     2287665 MO integrals (Spin case BBBB) were written to HF2BB.
     4575330 MO integrals (Spin case AABB) were written to HF2AB.
  Summary of active molecular orbitals: 
------------------------------------------------------------------------
                         * Spin case alpha *
 
  Index      Eigenvalue    Symmetry    Index      Eigenvalue    Symmetry
------------------------------------------------------------------------
     1        -1.1510452        1        64        12.3751529        3
     2        -0.5675908        2        65        14.4894909        3
     3        -0.5675908        3        66        14.4894909        3
     4        -0.5675908        5        67         0.2963046        4
     5         0.0955705        1        68         0.9308346        4
     6         0.2963046        1        69         2.1533293        4
     7         0.2963046        1        70         2.1533293        4
     8         0.5635244        1        71         2.4688799        4
     9         0.9308346        1        72         5.6457351        4
    10         0.9308346        1        73         5.6457351        4
    11         2.1533293        1        74         6.4960821        4
    12         2.1533293        1        75        14.6138948        4
    13         2.1533293        1        76        14.6138948        4
    14         2.2077079        1        77        17.4499204        4
    15         2.4688799        1        78         0.0885108        5
    16         2.4688799        1        79         0.4004711        5
    17         5.6457351        1        80         0.7815030        5
    18         5.6457351        1        81         0.7815030        5
    19         5.6457351        1        82         1.3237434        5
    20         6.4960821        1        83         2.2968850        5
    21         6.4960821        1        84         2.2968850        5
    22         7.9633963        1        85         3.8299740        5
    23        14.6138948        1        86         4.7303340        5
    24        14.6138948        1        87         4.7303340        5
    25        14.6138948        1        88         4.7303340        5
    26        17.4499204        1        89         5.7865676        5
    27        17.4499204        1        90         5.7865676        5
    28        46.2022887        1        91        12.1768190        5
    29         0.0885108        2        92        12.3751529        5
    30         0.4004711        2        93        12.3751529        5
    31         0.7815030        2        94        12.3751529        5
    32         0.7815030        2        95        14.4894909        5
    33         1.3237434        2        96        14.4894909        5
    34         2.2968850        2        97         0.2963046        6
    35         2.2968850        2        98         0.9308346        6
    36         3.8299740        2        99         2.1533293        6
    37         4.7303340        2       100         2.1533293        6
    38         4.7303340        2       101         2.4688799        6
    39         4.7303340        2       102         5.6457351        6
    40         5.7865676        2       103         5.6457351        6
    41         5.7865676        2       104         6.4960821        6
    42        12.1768190        2       105        14.6138948        6
    43        12.3751529        2       106        14.6138948        6
    44        12.3751529        2       107        17.4499204        6
    45        12.3751529        2       108         0.2963046        7
    46        14.4894909        2       109         0.9308346        7
    47        14.4894909        2       110         2.1533293        7
    48         0.0885108        3       111         2.1533293        7
    49         0.4004711        3       112         2.4688799        7
    50         0.7815030        3       113         5.6457351        7
    51         0.7815030        3       114         5.6457351        7
    52         1.3237434        3       115         6.4960821        7
    53         2.2968850        3       116        14.6138948        7
    54         2.2968850        3       117        14.6138948        7
    55         3.8299740        3       118        17.4499204        7
    56         4.7303340        3       119         0.7815030        8
    57         4.7303340        3       120         2.2968850        8
    58         4.7303340        3       121         4.7303340        8
    59         5.7865676        3       122         4.7303340        8
    60         5.7865676        3       123         5.7865676        8
    61        12.1768190        3       124        12.3751529        8
    62        12.3751529        3       125        12.3751529        8
    63        12.3751529        3       126        14.4894909        8
------------------------------------------------------------------------
------------------------------------------------------------------------
                         * Spin case beta *
 
  Index      Eigenvalue    Symmetry    Index      Eigenvalue    Symmetry
------------------------------------------------------------------------
     1        -0.7393378        1        64        14.5702336        3
     2         0.1074184        1        65        14.5702336        3
     3         0.3072998        1        66         0.3072998        4
     4         0.3072998        1        67         1.0094812        4
     5         0.6152450        1        68         2.1705386        4
     6         1.0094812        1        69         2.1705386        4
     7         1.0094812        1        70         2.6077174        4
     8         2.1705386        1        71         5.6920967        4
     9         2.1705386        1        72         5.6920967        4
    10         2.1705386        1        73         6.6228173        4
    11         2.3016598        1        74        14.6775589        4
    12         2.6077174        1        75        14.6775589        4
    13         2.6077174        1        76        17.5304012        4
    14         5.6920967        1        77         0.0642615        5
    15         5.6920967        1        78         0.1656010        5
    16         5.6920967        1        79         0.5000109        5
    17         6.6228173        1        80         0.7913136        5
    18         6.6228173        1        81         0.7913136        5
    19         8.0515260        1        82         1.4474416        5
    20        14.6775589        1        83         2.3460496        5
    21        14.6775589        1        84         2.3460496        5
    22        14.6775589        1        85         3.9490563        5
    23        17.5304012        1        86         4.7528694        5
    24        17.5304012        1        87         4.7528694        5
    25        46.2359414        1        88         4.7528694        5
    26         0.0642615        2        89         5.8705920        5
    27         0.1656010        2        90         5.8705920        5
    28         0.5000109        2        91        12.2572926        5
    29         0.7913136        2        92        12.4187448        5
    30         0.7913136        2        93        12.4187448        5
    31         1.4474416        2        94        12.4187448        5
    32         2.3460496        2        95        14.5702336        5
    33         2.3460496        2        96        14.5702336        5
    34         3.9490563        2        97         0.3072998        6
    35         4.7528694        2        98         1.0094812        6
    36         4.7528694        2        99         2.1705386        6
    37         4.7528694        2       100         2.1705386        6
    38         5.8705920        2       101         2.6077174        6
    39         5.8705920        2       102         5.6920967        6
    40        12.2572926        2       103         5.6920967        6
    41        12.4187448        2       104         6.6228173        6
    42        12.4187448        2       105        14.6775589        6
    43        12.4187448        2       106        14.6775589        6
    44        14.5702336        2       107        17.5304012        6
    45        14.5702336        2       108         0.3072998        7
    46         0.0642615        3       109         1.0094812        7
    47         0.1656010        3       110         2.1705386        7
    48         0.5000109        3       111         2.1705386        7
    49         0.7913136        3       112         2.6077174        7
    50         0.7913136        3       113         5.6920967        7
    51         1.4474416        3       114         5.6920967        7
    52         2.3460496        3       115         6.6228173        7
    53         2.3460496        3       116        14.6775589        7
    54         3.9490563        3       117        14.6775589        7
    55         4.7528694        3       118        17.5304012        7
    56         4.7528694        3       119         0.7913136        8
    57         4.7528694        3       120         2.3460496        8
    58         5.8705920        3       121         4.7528694        8
    59         5.8705920        3       122         4.7528694        8
    60        12.2572926        3       123         5.8705920        8
    61        12.4187448        3       124        12.4187448        8
    62        12.4187448        3       125        12.4187448        8
    63        12.4187448        3       126        14.5702336        8
------------------------------------------------------------------------
  @CHECKOUT-I, Total execution time (CPU/WALL):        1.95/      22.71 seconds.
--executable xvtran finished with status     0 in       23.07 seconds (walltime).
 --invoking executable--
/home/nike/cfour_v2.00beta/bin/xintprc
 @GETMEM-I,  Allocated   30517 MB of main memory.
  Processing integrals for CCSD calculation.
  @GMOIAA-I, Processing MO integrals for spin case AA.
  @GMOIAA-I, Generation of integral list completed.
                      TYPE                NUMBER
                      ----               --------
                      PPPP               3546311
                      PPPH                464151
                      PPHH                 15576
                      PHPH                  9996
                      PHHH                   690
                      HHHH                    16

                     TOTAL               4036740
  @GMOIAA-I, Processing MO integrals for spin case BB.
  @GMOIAA-I, Generation of integral list completed.
                      TYPE                NUMBER
                      ----               --------
                      PPPP               3907971
                      PPPH                126417
                      PPHH                  1164
                      PHPH                  1164
                      PHHH                    24
                      HHHH                     1

                     TOTAL               4036741
  @GMOIAB-I, Processing MO integrals for spin case AB.
                      TYPE                NUMBER
                      ----               --------
                      PPPP               7437762
                      PPPH1H              487371
                      PPPH2H              120402
                      PPHH                  8053
                      PHPH1P                1104
                      PHPH2P               10515
                      PHHH1P                  81
                      PHHH2P                 189
                      HHHH                     4

                     TOTAL               8065481
            ----------------------------------------------
                     Projected spin multiplicities: 
            ----------------------------------------------
             <0|S^2|0>                  =    3.7500000000.
             <0|S^2 T2|0>               =    0.0000000000.
             Projected <0|S^2 exp(T)|0> =    3.7500000000.
             Approximate spin mult.     =    4.0000000000.
            ----------------------------------------------
   Largest T2 amplitudes for spin case AA:
   i   j   a   b             i   j   a   b             i   j   a   b
-----------------------------------------------------------------------------
[  3   2  68  10]-0.01451 [  3   2  49  30]-0.01443 [  4   3  79  49]-0.01443
[  4   2  79  30]-0.01443 [  3   2  52  33]-0.01347 [  4   3  82  52]-0.01347
[  4   2  82  33]-0.01347 [  4   2  98   9] 0.01302 [  3   2  49  33]-0.01240
[  4   3  79  52]-0.01240 [  3   2  52  30]-0.01240 [  4   2  79  33]-0.01240
[  4   3  82  49]-0.01240 [  4   2  82  30]-0.01240 [  4   3 109   9] 0.01211
-----------------------------------------------------------------------------
   Norm of T2AA vector (     5580 symmetry allowed elements):  0.0860872653.
-----------------------------------------------------------------------------
   Largest T2 amplitudes for spin case AB:
       _       _                 _       _                 _       _
   i   j   a   b             i   j   a   b             i   j   a   b
-----------------------------------------------------------------------------
[  4   1   9  78] 0.02053 [  3   1  10  47]-0.01842 [  3   1  68  27] 0.01781
[  4   1  98  27] 0.01781 [  3   1 109  78] 0.01781 [  2   1  98  78] 0.01781
[  4   1 109  47] 0.01781 [  2   1  68  47] 0.01781 [  2   1  10  27] 0.01713
[  4   1  16  78]-0.01594 [  3   1  49   5]-0.01538 [  2   1  30   5]-0.01538
[  4   1  79   5]-0.01538 [  3   1  52   5]-0.01492 [  2   1  33   5]-0.01492
-----------------------------------------------------------------------------
   Norm of T2AB vector (     8053 symmetry allowed elements):  0.1375262284.
-----------------------------------------------------------------------------
  @CHECKOUT-I, Total execution time (CPU/WALL):        1.65/      14.44 seconds.
--executable xintprc finished with status     0 in       30.33 seconds (walltime).
 --invoking executable--
/home/nike/cfour_v2.00beta/bin/xint
 @GETMEM-I,  Allocated   30517 MB of main memory.
  @CHECKOUT-I, Total execution time (CPU/WALL):       31.00/     100.35 seconds.
--executable xint finished with status     0 in      118.06 seconds (walltime).
 --invoking executable--
/home/nike/MRCC/dmrcc
 **********************************************************************
                          MRCC program system
 **********************************************************************
 
                              Written by
    Mihaly Kallay, Zoltan Rolik, Jozsef Csontos, Istvan Ladjanszki,
       Lorant Szegedy, Bence Ladoczki, Gyula Samu, Klara Petrov,
        Mate Farkas, Peter Nagy, David Mester, and Bence Hegely
 
        Department of Physical Chemistry and Materials Science
            Budapest University of Technology and Economics
                  Budapest P.O.Box 91, H-1521 Hungary
 
                              www.mrcc.hu

 ************************ 2018-07-08 02:25:15 *************************
 Executing minp...

 Reading input from MINP...
 
 Input file:
 
# N 2Z
basis=aV5Z-EMSL
iface=cfour
uncontract=off
calc=CC(5)
mem=124GB
core=1
itol=18
scftol=13
cctol=7
ccmaxit=999
scfmaxit=9999
scfiguess=ao
scftype=ROHF
rohftype=semicanonical
rest=2
charge=+0
refdet=serialno
1
2,3,4

symm=8
mult=4
#occ=3,0,0,0,0,1,0,0/1,0,0,0,0,1,0,0
geom
N

#Li 1 R

#R=3.065

#unit=angstroms

tprint=0.01
verbosity=3
nstate=4

 
 
 Checking keyword combinations...
 
 Keywords:
 
 active=none
 agrid=ld0006-ld0590
 basis=av5z-emsl
 basopt=off
 bpcompo=0.985
 bpcompv=0.98
 bpdfo=0.985
 bpocc=0.985
 bppdo=0.985
 bppdv=0.98
 bpedo=0.985
 bpedv=0.98
 calc=cc(5)
 ccmaxit=999
 ccprog=mrcc
 cctol=7
 charge=+0
 cialg=disk
 ciguess=off
 cmpgrp=auto
 core=1
 corembed=off
 dboc=off
 dendec=cholesky
 dens=0
 dfalg=invsqrt
 dfbasis_cor=none
 dfbasis_scf=none
 dfintran=ovirt
 dft=off
 diag=david
 domrad=10.d0
 drpaalg=fit
 ecp=auto
 edisp=off
 embed=off
 epert=none
 eps=0.975
 excrad=0.d0
 excrad_fin=0.000000000D+00
 freq=off
 gauss=spher
 geom=zmat
 gopt=off
 ghost=none
 gtol=7
 grtol=10
 hamilton=dc
 iface=cfour
 intalg=auto
 itol=18
 lcorthr=loose
 lccrest=off
 lmp2dens=on
 lnoepso=3e-5
 lnoepsv=1e-6
 localcc=off
 locintrf=disk
 maxact=off
 maxex=0
 bfbasis=none
 mem=124gb
 molden=on
 mulmet=0
 mult=4
 nacto=0
 nactv=0
 naf_cor=off
 naf_scf=off
 nafalg=albe
 naftyp=
 nchol=auto
 ndeps=1e-3
 nstate=4
 nsing=0
 ntrip=0
 occ=
 optalg=
 optmaxit=50
 optetol=1e-6
 optgtol=1e-4
 optstol=1e-3
 orblocc=off
 orbloco=off
 orblocv=off
 osveps=1e-3
 ovirt=off
 ovosnorb=80.0
 ptfreq=0.0
 popul=off
 pressure=100000
 qmmm=off
 refdet=serialno
 rest=2
 rgrid=log3
 rohftype=semicanonical
 scspe=1.d0
 scsps=1.2d0
 scspt=0.33333333333333
 scfalg=auto
 scfdamp=off
 scfdiis=on
 scfdiis_end=9999
 scfdiis_start=1
 scfdiis_step=1
 scfdtol=17
 scfext=10
 scfiguess=ao
 scflshift=off
 scfmaxit=9999
 scftype=rohf
 scftol=13
 spairtol=1e-4
 symm=8
 talg=occ
 temp=298.15
 test=off
 tprint=0.01
 uncontract=off
 unit=angs
 verbosity=3
 wpairtol=0.100000000E-05

 ************************ 2018-07-08 02:25:16 *************************
 Executing goldstone...

 Generation of CC equations in terms of H and T...
 Generation of antisymmetrized Goldstone diagrams...
 Number of diagrams in T^1 equations:    15
 Number of diagrams in T^2 equations:    38
 Number of diagrams in T^3 equations:    54
 Number of diagrams in T^4 equations:    80
 Number of diagrams in T^5 equations:    99
 Translation of diagrams to factorized equations...
 Optimizing intermediate calculation...
 Optimizing right-hand EOMCC calculation...
 Number of floating-point operations per iteration step:   4.3941E+13
 Probable CPU time per iteration step (hours):    439.41
 Required memory (Mbytes):  181763.5
 Number of intermediates:                                 349
 Number of intermediates to be stored:                    131
 Length of intermediate file (Mbytes):  191472.1

 ************************ 2018-07-08 02:25:20 *************************
 Executing xmrcc...

 **********************************************************************
 CC(                     5 ) calculation 
 
 
 Allocation of****** Mbytes of memory...
 Number of spinorbitals:                   252
 Number of alpha electrons:                        4
 Number of beta electrons:                         1
 z-component of spin:  1.5
 Spatial symmetry:                      8
 Convergence criterion:  1.0E-07
 Construction of occupation graphs...
 Number of                     0 -fold excitations:                      1
 Number of                     1 -fold excitations:                    105
 Number of                     2 -fold excitations:                  13633
 Number of                     3 -fold excitations:                 839097
 Number of                     4 -fold excitations:               19534702
 Number of                     5 -fold excitations:              137257350
 Total number of configurations:              157644888
 Calculation of coupling coefficients...
 Length of intermediate file (Mbytes):   53596.0
 
 ======================================================================
 
 ======================================================================
 
 ======================================================================
 
 ======================================================================
 
 Memory requirements /Mbyte/: 
               Minimal        Optimal
 Real*8:     593596.2468    593596.2468
 Integer:      3332.2761
 Total:      596928.5230    596928.5230
 

 ************************ 2018-07-08 02:27:19 *************************
 Executing goldstone...

 Generation of MRCC equations in terms of H and T...
 Generation of antisymmetrized Goldstone diagrams...
 Number of diagrams in T^1 equations:    15
 Number of diagrams in T^2 equations:    38
 Number of diagrams in T^3 equations:    54
 Number of diagrams in T^4 equations:    80
 Number of diagrams in T^5 equations:    99
 Translation of diagrams to factorized equations...
 Number of restricted diagrams in T^1 equations:     30
 Number of restricted diagrams in T^2 equations:    129
 Number of restricted diagrams in T^3 equations:    306
 Number of restricted diagrams in T^4 equations:    669
 Number of restricted diagrams in T^5 equations:   1238
 Optimizing intermediate calculation...
 Optimizing right-hand EOMCC calculation...
 Number of floating-point operations per iteration step:   2.2454E+13
 Probable CPU time per iteration step (hours):    224.54
 Required memory (Mbytes):   30320.9
 Number of intermediates:                                1884
 Number of intermediates to be stored:                    580
 Length of intermediate file (Mbytes):   28697.9

 ************************ 2018-07-08 02:27:37 *************************
 Executing xmrcc...

 **********************************************************************
 MRCC(                     5 ) calculation 
 
 
 Allocation of****** Mbytes of memory...
 Number of spinorbitals:                   252
 Number of alpha electrons:                        4
 Number of beta electrons:                         1
 Number of active particles:                   124
 Number of active holes:                         0
 z-component of spin:  1.5
 Spatial symmetry:                      8
 Convergence criterion:  1.0E-07
 Construction of occupation graphs...
 Number of                     0 -fold excitations:                      1
 Number of                     1 -fold excitations:                    105
 Number of                     2 -fold excitations:                  13633
 Number of                     3 -fold excitations:                 839097
 Number of                     4 -fold excitations:               19534702
 Number of                     5 -fold excitations:              137257350
 Total number of configurations:              157644888
 Calculation of coupling coefficients...
 Length of intermediate file (Mbytes):   18848.1
 
 ======================================================================
 
 ======================================================================
 
 ======================================================================
 
 ======================================================================
 
 Memory requirements /Mbyte/: 
               Minimal        Optimal
 Real*8:      17718.5808     18749.4313
 Integer:      3385.8002
 Total:       21104.3810     22135.2315
 

 ************************ 2018-07-08 02:30:37 *************************
 Executing goldstone...

 Generation of MRCC equations in terms of H and T...
 Generation of antisymmetrized Goldstone diagrams...
 Number of diagrams in T^1 equations:     8
 Translation of diagrams to factorized equations...
 Number of restricted diagrams in T^1 equations:     12
[...]
 ======================================================================
 Norm of residual vector:     0.01108617      Convergence:   1.00000000
 CPU time [min]: 57736.599                   Wall time [min]:  5305.062
 
 Iteration  1  CI energy:   -54.09201795  Energy decrease:   0.43643801
 ======================================================================
 Norm of residual vector:     0.00226624      Convergence:   0.00177407
 CPU time [min]: 60684.805                   Wall time [min]:  5561.958
 
 Iteration  2  CI energy:   -54.09202660  Energy decrease:   0.00000865
 ======================================================================
 Norm of residual vector:     0.00059315      Convergence:   0.00042947
 CPU time [min]: 63608.432                   Wall time [min]:  5822.159
 
 Iteration  3  CI energy:   -54.09202080  Energy decrease:   0.00000580
 ======================================================================
 Norm of residual vector:     0.00022118      Convergence:   0.00018496
 CPU time [min]: 66625.021                   Wall time [min]:  6090.536
 
 Iteration  4  CI energy:   -54.09201133  Energy decrease:   0.00000947
 ======================================================================
 Norm of residual vector:     0.00011016      Convergence:   0.00010015
 CPU time [min]: 69571.022                   Wall time [min]:  6355.626
 
 Iteration  5  CI energy:   -54.09200813  Energy decrease:   0.00000321
 ======================================================================
 Norm of residual vector:     0.00003418      Convergence:   0.00003171
 CPU time [min]: 72504.348                   Wall time [min]:  6612.948
 
 Iteration  6  CI energy:   -54.09200724  Energy decrease:   0.00000089
 ======================================================================
 Norm of residual vector:     0.00001187      Convergence:   0.00001038
 CPU time [min]: 75443.055                   Wall time [min]:  6872.491
 
 Iteration  7  CI energy:   -54.09200709  Energy decrease:   0.00000015
 ======================================================================
 Norm of residual vector:     0.00000464      Convergence:   0.00000402
 CPU time [min]: 78539.646                   Wall time [min]:  7139.436
 
 Iteration  8  CI energy:   -54.09200703  Energy decrease:   0.00000006
 ======================================================================
 Norm of residual vector:     0.00000185      Convergence:   0.00000146
 CPU time [min]: 81498.416                   Wall time [min]:  7399.632
 
 Iteration  9  CI energy:   -54.09200700  Energy decrease:   0.00000003
 ======================================================================
 Norm of residual vector:     0.00000075      Convergence:   0.00000060
 CPU time [min]: 84499.906                   Wall time [min]:  7666.307
 
 Iteration 10  CI energy:   -54.09200700  Energy decrease:   4.1215E-09
 ======================================================================
 Norm of residual vector:     0.00000029      Convergence:   0.00000032
 CPU time [min]: 87502.808                   Wall time [min]:  7934.804
 
 Iteration 11  CI energy:   -54.09200700  Energy decrease:   1.6853E-09
 ======================================================================
 Norm of residual vector:     0.0000E+00      Convergence:   1.7157E-07
 CPU time [min]: 90434.331                   Wall time [min]:  8189.814
 
 Iteration 12  CI energy:   -54.09200699  Energy decrease:   1.3136E-09
 ======================================================================
 
 Iteration has converged in 12 steps.
 
 Final results:
 Total LR-CCSDTQP energy [au]:       -54.092006994413
 Excitation energy [eV]:          11.8764
 Excitation energy [cm^-1]:    95789.48
 Absorption wavelength [nm]:     104.40
 Spin multiplicity:                     2
 
 
 
 Dominant CI coefficients
 Printing threshold:  1.00E-02
 
   -0.015755  1a -> 12a                                                 
    0.380753  2a -> 7a                                                  
    0.103010  2a -> 16a                                                 
    0.016471  2a -> 32a                                                 
   -0.761520  3a -> 6a                                                  
   -0.206024  3a -> 15a                                                 
   -0.032942  3a -> 30a                                                 
    0.380767  4a -> 5a                                                  
    0.103014  4a -> 14a                                                 
    0.016471  4a -> 31a                                                 
   -0.020184  1a 1b -> 7a 2b                                            
    0.040369  1a 1b -> 6a 3b                                            
    0.010281  1a 1b -> 15a 3b                                           
    0.017618  3a 1b -> 8a 3b                                            
    0.035723  1a 1b -> 7a 7b                                            
    0.025905  1a 1b -> 7a 16b                                           
    0.011877  1a 1b -> 7a 32b                                           
   -0.071448  1a 1b -> 6a 6b                                            
   -0.018131  1a 1b -> 15a 6b                                           
   -0.051811  1a 1b -> 6a 15b                                           
   -0.012998  1a 1b -> 15a 15b                                          
   -0.023754  1a 1b -> 6a 30b                                           
   -0.020185  1a 1b -> 5a 4b                                            
    0.035725  1a 1b -> 5a 5b                                            
    0.025906  1a 1b -> 5a 14b                                           
    0.011877  1a 1b -> 5a 31b                                           
    0.013573  2a 1b -> 8a 7b                                            
   -0.021520  2a 1b -> 7a 8b                                            
    0.027348  2a 1b -> 7a 17b                                           
   -0.010481  2a 1b -> 7a 42b                                           
    0.014045  2a 1b -> 6a 26b                                           
   -0.013396  2a 1b -> 6a 52b                                           
   -0.027147  3a 1b -> 8a 6b                                            
    0.012776  3a 1b -> 17a 6b                                           
   -0.013341  3a 1b -> 8a 15b                                           
    0.043041  3a 1b -> 6a 8b                                            
   -0.054697  3a 1b -> 6a 17b                                           
   -0.011050  3a 1b -> 15a 17b                                          
   -0.012302  3a 1b -> 6a 29b                                           
    0.020963  3a 1b -> 6a 42b                                           
   -0.012337  3a 1b -> 6a 53b                                           
   -0.011313  3a 1b -> 10a 7b                                           
   -0.011313  3a 1b -> 9a 5b                                            
    0.013574  4a 1b -> 8a 5b                                            
    0.014045  4a 1b -> 6a 25b                                           
   -0.013396  4a 1b -> 6a 51b                                           
   -0.021521  4a 1b -> 5a 8b                                            
    0.027349  4a 1b -> 5a 17b                                           
   -0.010482  4a 1b -> 5a 42b                                           
    0.014234  1a 2a -> 7a 8a                                            
   -0.020196  1a 2a -> 7a 17a                                           
   -0.028469  1a 3a -> 6a 8a                                            
    0.040392  1a 3a -> 6a 17a                                           
   -0.010397  1a 3a -> 6a 28a                                           
   -0.019451  1a 3a -> 6a 42a                                           
    0.020308  2a 3a -> 6a 7a                                            
    0.029300  2a 3a -> 7a 15a                                           
    0.069955  2a 3a -> 6a 16a                                           
    0.024274  2a 3a -> 7a 30a                                           
    0.047210  2a 3a -> 6a 32a                                           
    0.010165  2a 3a -> 15a 32a                                          
    0.011133  2a 3a -> 6a 57a                                           
    0.014235  1a 4a -> 5a 8a                                            
   -0.020196  1a 4a -> 5a 17a                                           
   -0.040616  2a 4a -> 5a 7a                                            
    0.040654  2a 4a -> 7a 14a                                           
   -0.040655  2a 4a -> 5a 16a                                           
   -0.014011  2a 4a -> 14a 16a                                          
    0.022935  2a 4a -> 7a 31a                                           
   -0.022936  2a 4a -> 5a 32a                                           
    0.020308  3a 4a -> 5a 6a                                            
   -0.069955  3a 4a -> 6a 14a                                           
   -0.029301  3a 4a -> 5a 15a                                           
   -0.024275  3a 4a -> 5a 30a                                           
   -0.047210  3a 4a -> 6a 31a                                           
   -0.010165  3a 4a -> 15a 31a                                          
   -0.011133  3a 4a -> 6a 55a                                           
   -0.011956  2a 3a 4a -> 6a 14a 16a                                    
 
 Starting right-hand LR-CC iteration for root                      4 ...
 ======================================================================
 Norm of residual vector:     0.01108617      Convergence:   1.00000000
 CPU time [min]: 93322.894                   Wall time [min]:  8439.366
 
 Iteration  1  CI energy:   -54.09201795  Energy decrease:   0.43643801
 ======================================================================
 Norm of residual vector:     0.00226631      Convergence:   0.00177406
 CPU time [min]: 96198.696                   Wall time [min]:  8685.427
 
 Iteration  2  CI energy:   -54.09202660  Energy decrease:   0.00000865
 ======================================================================
 Norm of residual vector:     0.00059321      Convergence:   0.00042947
 CPU time [min]: 99066.614                   Wall time [min]:  8920.428
 
 Iteration  3  CI energy:   -54.09202080  Energy decrease:   0.00000580
 ======================================================================
 Norm of residual vector:     0.00022119      Convergence:   0.00018497
 CPU time [min]:101991.365                   Wall time [min]:  9173.273
 
 Iteration  4  CI energy:   -54.09201133  Energy decrease:   0.00000947
 ======================================================================
 Norm of residual vector:     0.00011017      Convergence:   0.00010015
 CPU time [min]:104977.723                   Wall time [min]:  9443.827
 
 Iteration  5  CI energy:   -54.09200813  Energy decrease:   0.00000321
 ======================================================================
 Norm of residual vector:     0.00003419      Convergence:   0.00003171
 CPU time [min]:107972.382                   Wall time [min]:  9709.415
 
 Iteration  6  CI energy:   -54.09200724  Energy decrease:   0.00000089
 ======================================================================
 Norm of residual vector:     0.00001187      Convergence:   0.00001038
 CPU time [min]:110926.477                   Wall time [min]:  9964.760
 
 Iteration  7  CI energy:   -54.09200709  Energy decrease:   0.00000015
 ======================================================================
 Norm of residual vector:     0.00000464      Convergence:   0.00000402
 CPU time [min]:113956.250                   Wall time [min]: 10236.426
 
 Iteration  8  CI energy:   -54.09200703  Energy decrease:   0.00000006
 ======================================================================
 Norm of residual vector:     0.00000185      Convergence:   0.00000146
 CPU time [min]:116906.813                   Wall time [min]: 10500.184
 
 Iteration  9  CI energy:   -54.09200700  Energy decrease:   0.00000003
 ======================================================================
 Norm of residual vector:     0.00000075      Convergence:   0.00000059
 CPU time [min]:119869.704                   Wall time [min]: 10776.386
 
 Iteration 10  CI energy:   -54.09200700  Energy decrease:   4.1187E-09
 ======================================================================
 Norm of residual vector:     0.00000029      Convergence:   0.00000029
 CPU time [min]:122951.117                   Wall time [min]: 11075.777
 
 Iteration 11  CI energy:   -54.09200700  Energy decrease:   1.7097E-09
 ======================================================================
 Norm of residual vector:     0.0000E+00      Convergence:   1.7681E-07
 CPU time [min]:126084.680                   Wall time [min]: 11389.778
 
 Iteration 12  CI energy:   -54.09200699  Energy decrease:   1.4037E-09
 ======================================================================
 
 Iteration has converged in 12 steps.
 
 Final results:
 Total LR-CCSDTQP energy [au]:       -54.092006994296
 Excitation energy [eV]:          11.8764
 Excitation energy [cm^-1]:    95789.48
 Absorption wavelength [nm]:     104.40
 Spin multiplicity:                     2
 
 Dominant CI coefficients
 Printing threshold:  1.00E-02
 
    0.016095  1a -> 12a                                                 
   -0.761520  2a -> 7a                                                  
   -0.206024  2a -> 16a                                                 
   -0.032942  2a -> 32a                                                 
    0.380748  3a -> 6a                                                  
    0.103008  3a -> 15a                                                 
    0.016470  3a -> 30a                                                 
    0.380773  4a -> 5a                                                  
    0.103015  4a -> 14a                                                 
    0.016472  4a -> 31a                                                 
    0.040369  1a 1b -> 7a 2b                                            
    0.010281  1a 1b -> 16a 2b                                           
   -0.020184  1a 1b -> 6a 3b                                            
    0.017618  2a 1b -> 8a 2b                                            
   -0.071448  1a 1b -> 7a 7b                                            
   -0.018131  1a 1b -> 16a 7b                                           
   -0.051811  1a 1b -> 7a 16b                                           
   -0.012998  1a 1b -> 16a 16b                                          
   -0.023754  1a 1b -> 7a 32b                                           
    0.035723  1a 1b -> 6a 6b                                            
    0.025905  1a 1b -> 6a 15b                                           
    0.011877  1a 1b -> 6a 30b                                           
   -0.020185  1a 1b -> 5a 4b                                            
    0.035725  1a 1b -> 5a 5b                                            
    0.025906  1a 1b -> 5a 14b                                           
    0.011877  1a 1b -> 5a 31b                                           
   -0.027147  2a 1b -> 8a 7b                                            
    0.012776  2a 1b -> 17a 7b                                           
   -0.013341  2a 1b -> 8a 16b                                           
    0.043041  2a 1b -> 7a 8b                                            
   -0.054697  2a 1b -> 7a 17b                                           
   -0.011050  2a 1b -> 16a 17b                                          
    0.012448  2a 1b -> 7a 29b                                           
    0.020963  2a 1b -> 7a 42b                                           
    0.013065  2a 1b -> 7a 53b                                           
   -0.011313  2a 1b -> 10a 6b                                           
   -0.011313  2a 1b -> 11a 5b                                           
    0.013573  3a 1b -> 8a 6b                                            
    0.014045  3a 1b -> 7a 26b                                           
   -0.013396  3a 1b -> 7a 52b                                           
   -0.021520  3a 1b -> 6a 8b                                            
    0.027347  3a 1b -> 6a 17b                                           
   -0.010481  3a 1b -> 6a 42b                                           
    0.013574  4a 1b -> 8a 5b                                            
    0.014045  4a 1b -> 7a 27b                                           
   -0.013396  4a 1b -> 7a 50b                                           
   -0.021521  4a 1b -> 5a 8b                                            
    0.027349  4a 1b -> 5a 17b                                           
   -0.010482  4a 1b -> 5a 42b                                           
   -0.028469  1a 2a -> 7a 8a                                            
    0.040392  1a 2a -> 7a 17a                                           
   -0.019451  1a 2a -> 7a 42a                                           
    0.014234  1a 3a -> 6a 8a                                            
   -0.020195  1a 3a -> 6a 17a                                           
    0.020309  2a 3a -> 6a 7a                                            
   -0.069955  2a 3a -> 7a 15a                                           
   -0.029299  2a 3a -> 6a 16a                                           
   -0.047210  2a 3a -> 7a 30a                                           
   -0.010165  2a 3a -> 16a 30a                                          
   -0.024274  2a 3a -> 6a 32a                                           
   -0.011133  2a 3a -> 7a 56a                                           
    0.014235  1a 4a -> 5a 8a                                            
   -0.020197  1a 4a -> 5a 17a                                           
    0.020307  2a 4a -> 5a 7a                                            
   -0.069955  2a 4a -> 7a 14a                                           
   -0.029302  2a 4a -> 5a 16a                                           
   -0.047210  2a 4a -> 7a 31a                                           
   -0.010166  2a 4a -> 16a 31a                                          
   -0.024275  2a 4a -> 5a 32a                                           
   -0.011133  2a 4a -> 7a 55a                                           
   -0.040616  3a 4a -> 5a 6a                                            
    0.040653  3a 4a -> 6a 14a                                           
   -0.040656  3a 4a -> 5a 15a                                           
   -0.014011  3a 4a -> 14a 15a                                          
   -0.022937  3a 4a -> 5a 30a                                           
    0.022935  3a 4a -> 6a 31a                                           
    0.011956  2a 3a 4a -> 7a 14a 15a                                    
 
 ************************ 2018-07-16 17:44:14 *************************
                      Normal termination of mrcc.
 **********************************************************************
--executable dmrcc finished with status     0 in   746339.95 seconds (walltime).
  The final electronic energy is       -54.092006994296170 a.u. 
  This computation required                       746524.02 seconds (walltime).
--- SharcNET Job Epilogue ---
Job completed successfully.
               jobid: 1552011
               resid: 3030004
         exit status: 0
      allocated time: 746526
           user time: 6120340
         system time: 2174980
peak rss=72954830848; peak vsz=72954830848 (bytes)
atime=746526; utime=6120340; stime=2174980; exit=0
