 --invoking executable--
/cvmfs/restricted.computecanada.ca/easybuild/software/2020/avx2/Compiler/intel2020/cfour/2.1/bin/xjoda


   *************************************************************************
         <<<     CCCCCC     CCCCCC   |||     CCCCCC     CCCCCC   >>>
       <<<      CCC        CCC       |||    CCC        CCC         >>>
      <<<      CCC        CCC        |||   CCC        CCC            >>>
    <<<        CCC        CCC        |||   CCC        CCC              >>>
      <<<      CCC        CCC        |||   CCC        CCC            >>>
       <<<      CCC        CCC       |||    CCC        CCC         >>>
         <<<     CCCCCC     CCCCCC   |||     CCCCCC     CCCCCC   >>>
   *************************************************************************

     ****************************************************************
     * CFOUR Coupled-Cluster techniques for Computational Chemistry *
     ****************************************************************
 

   Department of Chemistry                Institut fuer Physikalische Chemie
   University of Florida                  Universitaet Mainz
   Gainesville, FL 32611, USA             D-55099 Mainz, Germany

   Department of Chemistry                Fakultaet fuer Chemie und Biowiss.
   Johns Hopkins University               Karlsruher Institut fuer Technologie
   Baltimore, MD 21218, USA               D-76131 Karlsruhe, Germany

   Department of Chemistry                Department of Physical Chemistry
   Southern Methodist University          Eotvos Lorand University
   Dallas, TX 75275, USA                  H-1053 Budapest, Hungary

 
                       Version 2.1
 
                     gra355                                            
                     Sat 16 Mar 2024 01:09:59 AM EDT                   
                     integer*8 version is running
 
********************************************************************************
*                          Input from ZMAT file                                *
********************************************************************************
Test                                                                            
N                                                                               
                                                                                
*ACES2(CALC=CCSDT                                                               
#FROZEN_CORE=ON                                                                 
#DROPMO=1                                                                       
#INPUT_MRCC=OFF                                                                 
#CC_PROG=MRCC                                                                   
XFORM_TOL=18                                                                    
SAVE_INTS=ON                                                                    
SCF_EXPORDER=6                                                                  
SCF_EXPSTART=5                                                                  
#SCF_DAMPING=1000                                                               
SCF_EXTRAPOLATION=ON                                                            
SCF_CONV=10                                                                     
SCF_MAXCYC=9999                                                                 
CC_CONV=10                                                                      
CC_MAXCYC=999                                                                   
T3_EXTRAPOL=ON                                                                  
REFERENCE=ROHF                                                                  
CHARGE=+0                                                                       
MULT=4                                                                          
ABCDTYPE=STANDARD                                                               
OCCUPATION=2-1-1-0-1-0-0-0/2-0-0-0-0-0-0-0                                      
MEM=30                                                                          
MEM_UNIT=GB                                                                     
BASIS=SPECIAL)                                                                  
                                                                                
N:aCV5Z-EMSL                                                                    
                                                                                
********************************************************************************
  @GTFLGS-W, Keyword #FROZEN_CORE not known and is ignored.
  @GTFLGS-W, Keyword #DROPMO not known and is ignored.
  @GTFLGS-W, Keyword #INPUT_MRCC not known and is ignored.
  @GTFLGS-W, Keyword #CC_PROG not known and is ignored.
  @GTFLGS-W, Keyword #SCF_DAMPING not known and is ignored.
    -------------------------------------------------------------------
                    CFOUR Control Parameters 
    -------------------------------------------------------------------
        External           Internal           Value            Units
          Name               Name
    -------------------------------------------------------------------
       ABCDTYPE             IABCDT         STANDARD    [  0]    ***   
       ANHARMONIC           IANHAR         OFF         [  0]    ***   
       ANH_ALGORIT          IANALG         STANDARD    [  0]    ***   
       ANH_DERIVAT          IANDER         SECOND      [  1]    ***   
       ANH_MODE             ANHMOD         VIBRATION   [  0]    ***   
       ANH_STEPSIZ          ICUBST             50000          x 10-6  
       ANH_SYMMETR          IANHSM         ABELIAN     [  0]    ***   
       AO_LADDERS           IAOLAD         SINGLEPASS  [  1]    ***   
       AV_SCF               IAVSCF         OFF         [  0]    ***   
       BASIS                IBASIS         SPECIAL     [  0]    ***   
       BOTHVECTORS          BOTHVC         OFF         [  0]    ***   
       BOX_POTENT           IPIAB          OFF         [  0]    ***   
       BREIT                IBREIT         OFF         [  0]    ***   
       BRUCK_CONV           IBRTOL          10D-  4             ***   
       BRUECKNER            IBRKNR         OFF         [  0]    ***   
       BUFFERSIZE           IBUFFS              4096            ***   
       CACHE_RECS           ICHREC             10               ***   
       CALCLEVEL            ICLLVL         CCSDT       [ 18]    ***   
       CCORBOPT             ICCORB         OFF         [  0]  x 0.01  
       CC_CONV              ICCCNV          10D- 10             ***   
       CC_EXPORDER          ICCEOR              5               ***   
       CC_EXTRAPOL          ICCEXT         DIIS        [  1]    ***   
       CC_GUESS             ICCGES         MP2         [  0]    ***   
       CC_MAXCYC            ICCCYC            999              cycles 
       CC_PROGRAM           ICCPRO         VCC         [  0]    ***   
       CHARGE               ICHRGE              0               ***   
       CHOLESKY             ICHOLE         OFF         [  0]    ***   
       CIS_CONV             ICISTL              5               ***   
       COMM_SIZE            IPSIZE            ***               ***   
       CONSTANT             ICONST         OLD         [  1]    ***   
       CONTINUUM            ICONTU         NONE        [  0]    ***   
       CONTRACTION          ICNTYP         GENERAL     [  1]    ***   
       COORDINATES          ICOORD         INTERNAL    [  0]    ***   
       CPHF_CONVER          ICPHFT          10D- 16             ***   
       CPHF_MAXCYC          ICPHFC             64              cycles 
       CUBIC                ICUBIC         OFF         [  0]    ***   
       CURVILINEAR          ICURVY         OFF         [  0]    ***   
       DBOC                 IDBOC          OFF         [  0]    ***   
       DCT                  IDCT           OFF         [  0]    ***   
       DERIV_LEV            IDRLVL         ZERO        [  0]    ***   
       DEVMEM_SIZE          IDVMEM         *********           MByte  
       DIAG_MRCC            IEOMST          10D-  0             ***   
       DIFF_TYPE            IDIFTY         RELAXED     [  0]    ***   
       DIRECT               IDIRCT         OFF         [  0]    ***   
       DROPMO               IDRPMO      NONE         
       ECP                  IECP           OFF         [  0]    ***   
       EIGENVECTOR          IVEC                1               ***   
       EL_ANHARM            IELANH         OFF         [  0]    ***   
       EOMFOLLOW            IEOMSR         ENERGY      [  0]    ***   
       EOMIP                IEOMIP         OFF         [  0]    ***   
       EOMLEVEL             HBARFM         SAME        [  0]    ***   
       EOM_MRCC             IMRCCE         NEW         [  1]    ***   
       EOM_NONIT            EOMNON         OFF         [  0]    ***   
       EOM_NSING            IEOMSI          10D-  0             ***   
       EOM_NSTATES          IMRCCD         DAVIDSON    [  0]    ***   
       EOM_NTRIP            IEOMTR          10D-  0             ***   
       EOM_ORDER            IEXORD         ENERGY      [  0]    ***   
       EOM_PROPSTA          IEOMST              0               ***   
       ESTATE_CONV          IEXTOL          10D-  5             ***   
       ESTATE_DIAG          IEXDIG         ITERATIVE   [  0]    ***   
       ESTATE_LOCK          IESLOC         ON          [  1]    ***   
       ESTATE_MAXC          IEXMXC             40               ***   
       ESTATE_PROP          IEXPRP         OFF         [  0]    ***   
       EVAL_HESS            IRECAL              0            # of cyc.
       EXCITATION           IEXCIT              0               ***   
       EXCITE               IEXCIT         NONE        [  0]    ***   
       EXTERN_POT           IEXPOT         OFF         [  0]    ***   
       FCGRADNEW            IFCGNW         OFF         [  0]    ***   
       FC_FIELD             IFINFC              0             x 10-6  
       FD_CALTYPE           IFDCAL         GRADONLY    [  0]    ***   
       FD_PROJECT           IFDPRJ         OFF         [  1]    ***   
       FD_STEPSIZE          IDISFD              0            10-4 bohr
       FD_USEGROUP          IFDGRP         FULL        [  0]    ***   
       FILE_RECSIZ          IFLREC              4096           words  
       FINITE_PERT          IFIPER              0             x 10-6  
       FIXGEOM              IFIXGM         OFF         [  0]    ***   
       FOCK                 IFOCK          AO          [  1]    ***   
       FREQ_ALGORI          IVIALG         STANDARD    [  0]    ***   
       FROZEN_CORE          IFROCO         OFF         [  0]    ***   
       GAMMA_ABCD           IGABCD         STORE       [  0]    ***   
       GAMMA_ABCI           IGABCI         STORE       [  0]    ***   
       GENBAS_1             IGNBS1              0               ***   
       GENBAS_2             IGNBS2              0               ***   
       GENBAS_3             IGNBS3              0               ***   
       GENBAS_4             IGNBS4              0               ***   
       GEO_CONV             ICONTL              5              H/bohr 
       GEO_MAXCYC           IOPTCY             50               ***   
       GEO_MAXSTEP          IMXSTP            300            millibohr
       GEO_METHOD           INR            SINGLE_POINT[  5]    ***   
       GIAO                 IGIAO          OFF         [  1]    ***   
       GIMIC                IGIMIC         OFF         [  0]    ***   
       GRID                 IGRID          OFF         [  0]    ***   
       GRID_ALGO            IGALGO         SERIAL      [  0]    ***   
       GUESS                IGUESS         MOREAD      [  0]    ***   
       HBAR                 IHBAR          OFF         [  0]    ***   
       HESS_TYPE            IHESTP         SCF         [  0]    ***   
       HF2_FILE             IHF2Fl         USE         [  1]    ***   
       HFSTABILITY          ISTABL         OFF         [  0]    ***   
       INCORE               INCORE         OFF         [  0]    ***   
       INPUT_MRCC           IMRCC          ON          [  1]    ***   
       INTEGRALS            INTTYP         VMOL        [  1]    ***   
       JODA_PRINT           IJPRNT              0               ***   
       KEYWORD_OUT          IDMPKW         NO          [  0]    ***   
       LINDEP_TOL           ILINDP              8               ***   
       LINEQ_CONV           IZTACN          10D-  7           cycles  
       LINEQ_EXPOR          ILMAXD              5               ***   
       LINEQ_MAXCY          ILMAXC            100               ***   
       LINEQ_TYPE           ILTYPE         DIIS        [  1]    ***   
       LOCK_ORBOCC          ILOCOC         OFF         [  0]    ***   
       MEMORY_SIZE          IMEMSZ         *********           words  
       MEM_UNIT             IMEMU          GB          [  3]    ***   
       MRCC                 IMRCCC         OFF         [  0]    ***   
       MULTIPLICTY          IMULTP              4               ***   
       NACOUPLING           IVCOUP         OFF         [  0]    ***   
       NEGEVAL              IDIE           ABORT       [  0]    ***   
       NEWNORM              INEWNO         OFF         [  0]    ***   
       NON-HF               INONHF         ON          [  1]    ***   
       NTOP_TAMP            ITOPT2             15               ***   
       NUC_MODEL            INUCMO         POINT       [  0]    ***   
       OCCUPATION           IOCCU  A   2,  1,  1,  0,  1,  0,  0,  0,
                                   B   2,  0,  0,  0,  0,  0,  0,  0,
       OPEN-SHELL           IOPEN          SPIN-ORBITAL[  0]    ***   
       OPTVIB               IOPTVB         OFF         [  0]    ***   
       ORBITALS             IORBTP         SEMICANONICA[  1]    ***   
       PARALLEL             IPARAL         ON          [  1]    ***   
       PARA_INT             IPINTS         ON          [  1]    ***   
       PARA_PRINT           IPPRIN              0               ***   
       PERT_ORB             IPTORB         STANDARD    [  0]    ***   
       POINTS               IGRDFD              0               ***   
       PRINT                IPRNT               0               ***   
       PROPS                IPROPS         OFF         [  0]    ***   
       PROP_INTEGR          IINTYP         INTERNAL    [  0]    ***   
       PSI                  IPSI           OFF         [  0]    ***   
       QC_ALG               IQCALG         FLM         [  0]    ***   
       QC_LINALG            IQCLIN         TRIDIAG     [  2]    ***   
       QC_MAXCYC            IQCMAX          10D-100           cycles  
       QC_MAXSCFCY          IQCMSC          10D- 15           cycles  
       QC_RTRUST            IQCRTR          10D-  0           x 10-3  
       QC_SKIPSCF           IQCSKI         OFF         [  0]    ***   
       QC_START             IQCSTA          10D-  1             ***   
       QRHFGUESS            IQGUES         OFF         [  0]    ***   
       QUARTIC              IQUART         OFF         [  0]    ***   
       RAMAN_INT            IRAMIN         OFF         [  0]    ***   
       RAMAN_ORB            IRAMRE         UNRELAXED   [  0]    ***   
       RDO                  IRDOFM         OFF         [  0]    ***   
       REDUCE_REPR          REDREP         Ir          [  0]    ***   
       REFERENCE            IREFNC         ROHF        [  2]    ***   
       RELATIVIST           IRELAT         OFF         [  0]    ***   
       RELAX_DENS           IRDENS         OFF         [  0]    ***   
       RESET_FLAGS          IRESET         OFF         [  0]    ***   
       RESTART_CC           ICCRES         OFF         [  0]    ***   
       ROT_EVEC             ROTVEC              0               ***   
       SAVE_INTS            ISVINT         ON          [  1]    ***   
       SCALE_ON             ISTCRT              0               ***   
       SCF_CONV             ISCFCV          10D- 10             ***   
       SCF_DAMPING          IDAMP               0             x 10-3  
       SCF_EXPORDE          IRPPOR              6               ***   
       SCF_EXPSTAR          IRPPLS              5               ***   
       SCF_EXTRAPO          IRPP           ON          [  1]    ***   
       SCF_MAXCYC           ISCFCY            ***              cycles 
       SCF_NOSTOP           ISCFST         OFF         [  0]    ***   
       SCF_PRINT            ISCFPR              0               ***   
       SCF_PROG             ISCFPR         SCF         [  0]    ***   
       SD_FIELD             IFINSD              0             x 10-6  
       SOPERT               IPERSO         OFF         [  0]    ***   
       SPHERICAL            IDFGHI         ON          [  1]    ***   
       SPINORBIT            ISOCAL         OFF         [  0]    ***   
       SPINROTATIO          ISRCON         OFF         [  0]    ***   
       SPIN_FLIP            ISPFLP         OFF         [  0]    ***   
       SPIN_ORBIT           ISPORB         OFF         [  0]    ***   
       SPIN_SCAL            ISCSMP         OFF         [  0]    ***   
       STEEPSCALE           ISTPSC              1000          x 10-3  
       SUBGROUP             ISUBGP         DEFAULT     [  0]    ***   
       SUBGRPAXIS           ISBXYZ         X           [  0]    ***   
       SYMMETRY             ISYM           ON          [  0]    ***   
       SYM_CHECK            ISYMCK         OVERRIDE    [  1]    ***   
       T3_EXTRAPOL          IT3EXT         ON          [  1]    ***   
       T4_EXTRAPOL          IT4EXP         OFF         [  0]    ***   
       TAMP_SUM             IEVERY              5               ***   
       TESTSUITE            ITESTS         OFF         [  0]    ***   
       THERMOCH             ITHERM         OFF         [  0]    ***   
       TOL_CHOLESK          ITOLCH          10D-  4             ***   
       TRANGRAD             IRESRM         OFF         [  0]    ***   
       TRANS_INV            ITRAIN         USE         [  0]    ***   
       TREAT_PERT           ITREAT         SIMULTANEOUS[  0]    ***   
       TRIP_ALGORI          ITRALG         NORMAL      [  0]    ***   
       UIJ_THRESHO          IUIJTH              1               ***   
       UNITS                IUNITS         ANGSTROM    [  0]    ***   
       UNOS                 IUNOS          OFF         [  0]    ***   
       UPDATE_HESS          IHUPDT         ON          [  1]    ***   
       VIBPHASE             ISETPH         STANDARD    [  0]    ***   
       VIBRATION            IVIB           NO          [  0]    ***   
       VIB_ALGORIT          IGEALG         STANDARD    [  0]    ***   
       VNATORB              IVNORB         OFF         [  0]    ***   
       VTRAN                IVTRAN         FULL/PARTIAL[  0]    ***   
       XFIELD               IXEFLD              0             x 10-6  
       XFORM_TOL            IXFTOL          10D- 18             ***   
       YFIELD               IYEFLD              0             x 10-6  
       ZFIELD               IZEFLD              0             x 10-6  
       ZSCALE_EXP           IZEXPS         OFF         [  0]    ***   
    -------------------------------------------------------------------
   1 entries found in Z-matrix 
   Job Title : Test                                                                            
   Rotational constants (in cm-1): 

   Rotational constants (in MHz): 

********************************************************************************
   The full molecular point group is I h .
   The largest Abelian subgroup of the full molecular point group is D2h .
   The computational point group is D2h .
********************************************************************************
  ECPDATA file not present.   Using default ECPDATA. 
  @GTFLGS-W, Keyword #FROZEN_CORE not known and is ignored.
  @GTFLGS-W, Keyword #DROPMO not known and is ignored.
  @GTFLGS-W, Keyword #INPUT_MRCC not known and is ignored.
  @GTFLGS-W, Keyword #CC_PROG not known and is ignored.
  @GTFLGS-W, Keyword #SCF_DAMPING not known and is ignored.
  There are  181 basis functions.
 @GEOPT-W, Archive file not created for single-point calculation.
 @CHECKOUT-I, Total execution time (CPU/WALL):        0.22/       0.31 seconds.
--executable xjoda finished with status     0 in        0.36 seconds (walltime).
 --invoking executable--
/cvmfs/restricted.computecanada.ca/easybuild/software/2020/avx2/Compiler/intel2020/cfour/2.1/bin/xvmol
 SERIAL VERSION OF MOLECULE STARTED
********************************************************************************
                    INPUT FROM MOL FILE
********************************************************************************
INTGRL        1    0    1    0    0    0    0    0    0                         
         *** CFOUR Program System (Release V0.1) ***                            
Test                                                                            
    1    3 X  Y   Z   0.10E-08              0    0                              
   9999.00      3.00                                                            
          7.00000000    1    6    1    1    1    1    1    1                    
N #1   0.000000000000000   0.000000000000000   0.000000000000000                
   19   11                                                                      
   129200.000000000       2.500000000000000E-005 -6.000000000000000E-006        
  0.000000000000000E+000  0.000000000000000E+000  0.000000000000000E+000        
  0.000000000000000E+000  0.000000000000000E+000  0.000000000000000E+000        
  0.000000000000000E+000  0.000000000000000E+000  0.000000000000000E+000        
   19350.0000000000       1.970000000000000E-004 -4.300000000000000E-005        
  0.000000000000000E+000  0.000000000000000E+000  0.000000000000000E+000        
  0.000000000000000E+000  0.000000000000000E+000  0.000000000000000E+000        
  0.000000000000000E+000  0.000000000000000E+000  0.000000000000000E+000        
   4404.00000000000       1.032000000000000E-003 -2.270000000000000E-004        
  0.000000000000000E+000  0.000000000000000E+000  0.000000000000000E+000        
  0.000000000000000E+000  0.000000000000000E+000  0.000000000000000E+000        
  0.000000000000000E+000  0.000000000000000E+000  0.000000000000000E+000        
   1248.00000000000       4.325000000000000E-003 -9.580000000000000E-004        
  0.000000000000000E+000  0.000000000000000E+000  0.000000000000000E+000        
  0.000000000000000E+000  0.000000000000000E+000  0.000000000000000E+000        
  0.000000000000000E+000  0.000000000000000E+000  0.000000000000000E+000        
   408.000000000000       1.538000000000000E-002 -3.416000000000000E-003        
  0.000000000000000E+000  0.000000000000000E+000  0.000000000000000E+000        
  0.000000000000000E+000  0.000000000000000E+000  0.000000000000000E+000        
  0.000000000000000E+000  0.000000000000000E+000  0.000000000000000E+000        
   148.200000000000       4.686700000000000E-002 -1.066700000000000E-002        
  0.000000000000000E+000  0.000000000000000E+000  0.000000000000000E+000        
  0.000000000000000E+000  0.000000000000000E+000  0.000000000000000E+000        
  0.000000000000000E+000  0.000000000000000E+000  0.000000000000000E+000        
   58.5000000000000       0.120116000000000      -2.827900000000000E-002        
  0.000000000000000E+000  0.000000000000000E+000  0.000000000000000E+000        
  0.000000000000000E+000  0.000000000000000E+000  0.000000000000000E+000        
  0.000000000000000E+000  0.000000000000000E+000  0.000000000000000E+000        
   24.5900000000000       0.245695000000000      -6.401999999999999E-002        
  0.000000000000000E+000  0.000000000000000E+000  0.000000000000000E+000        
  0.000000000000000E+000  0.000000000000000E+000  0.000000000000000E+000        
  0.000000000000000E+000  0.000000000000000E+000  0.000000000000000E+000        
   10.8100000000000       0.361379000000000      -0.113932000000000             
  0.000000000000000E+000  0.000000000000000E+000  0.000000000000000E+000        
  0.000000000000000E+000  0.000000000000000E+000  0.000000000000000E+000        
  0.000000000000000E+000  0.000000000000000E+000  0.000000000000000E+000        
   4.88200000000000       0.287283000000000      -0.146995000000000             
  0.000000000000000E+000  0.000000000000000E+000  0.000000000000000E+000        
  0.000000000000000E+000  0.000000000000000E+000  0.000000000000000E+000        
  0.000000000000000E+000  0.000000000000000E+000  0.000000000000000E+000        
   2.19500000000000       7.017100000000000E-002 -7.251000000000000E-003        
   1.00000000000000       0.000000000000000E+000  0.000000000000000E+000        
  0.000000000000000E+000  0.000000000000000E+000  0.000000000000000E+000        
  0.000000000000000E+000  0.000000000000000E+000  0.000000000000000E+000        
  0.871500000000000       1.831000000000000E-003  0.366183000000000             
  0.000000000000000E+000   1.00000000000000       0.000000000000000E+000        
  0.000000000000000E+000  0.000000000000000E+000  0.000000000000000E+000        
  0.000000000000000E+000  0.000000000000000E+000  0.000000000000000E+000        
  0.350400000000000       8.350000000000000E-004  0.547908000000000             
  0.000000000000000E+000  0.000000000000000E+000   1.00000000000000             
  0.000000000000000E+000  0.000000000000000E+000  0.000000000000000E+000        
  0.000000000000000E+000  0.000000000000000E+000  0.000000000000000E+000        
  0.139700000000000      -6.000000000000000E-006  0.216645000000000             
  0.000000000000000E+000  0.000000000000000E+000  0.000000000000000E+000        
   1.00000000000000       0.000000000000000E+000  0.000000000000000E+000        
  0.000000000000000E+000  0.000000000000000E+000  0.000000000000000E+000        
   12.2750000000000       0.000000000000000E+000  0.000000000000000E+000        
  0.000000000000000E+000  0.000000000000000E+000  0.000000000000000E+000        
  0.000000000000000E+000   1.00000000000000       0.000000000000000E+000        
  0.000000000000000E+000  0.000000000000000E+000  0.000000000000000E+000        
   27.8270000000000       0.000000000000000E+000  0.000000000000000E+000        
  0.000000000000000E+000  0.000000000000000E+000  0.000000000000000E+000        
  0.000000000000000E+000  0.000000000000000E+000   1.00000000000000             
  0.000000000000000E+000  0.000000000000000E+000  0.000000000000000E+000        
   63.0850000000000       0.000000000000000E+000  0.000000000000000E+000        
  0.000000000000000E+000  0.000000000000000E+000  0.000000000000000E+000        
  0.000000000000000E+000  0.000000000000000E+000  0.000000000000000E+000        
   1.00000000000000       0.000000000000000E+000  0.000000000000000E+000        
   143.013000000000       0.000000000000000E+000  0.000000000000000E+000        
  0.000000000000000E+000  0.000000000000000E+000  0.000000000000000E+000        
  0.000000000000000E+000  0.000000000000000E+000  0.000000000000000E+000        
  0.000000000000000E+000   1.00000000000000       0.000000000000000E+000        
  5.180000000000000E-002  0.000000000000000E+000  0.000000000000000E+000        
  0.000000000000000E+000  0.000000000000000E+000  0.000000000000000E+000        
  0.000000000000000E+000  0.000000000000000E+000  0.000000000000000E+000        
  0.000000000000000E+000  0.000000000000000E+000   1.00000000000000             
   13   10                                                                      
   147.000000000000       8.920000000000000E-004  0.000000000000000E+000        
  0.000000000000000E+000  0.000000000000000E+000  0.000000000000000E+000        
  0.000000000000000E+000  0.000000000000000E+000  0.000000000000000E+000        
  0.000000000000000E+000  0.000000000000000E+000                                
   34.7600000000000       7.082000000000000E-003  0.000000000000000E+000        
  0.000000000000000E+000  0.000000000000000E+000  0.000000000000000E+000        
  0.000000000000000E+000  0.000000000000000E+000  0.000000000000000E+000        
  0.000000000000000E+000  0.000000000000000E+000                                
   11.0000000000000       3.281600000000000E-002  0.000000000000000E+000        
  0.000000000000000E+000  0.000000000000000E+000  0.000000000000000E+000        
  0.000000000000000E+000  0.000000000000000E+000  0.000000000000000E+000        
  0.000000000000000E+000  0.000000000000000E+000                                
   3.99500000000000       0.108209000000000       0.000000000000000E+000        
  0.000000000000000E+000  0.000000000000000E+000  0.000000000000000E+000        
  0.000000000000000E+000  0.000000000000000E+000  0.000000000000000E+000        
  0.000000000000000E+000  0.000000000000000E+000                                
   1.58700000000000       0.248094000000000        1.00000000000000             
  0.000000000000000E+000  0.000000000000000E+000  0.000000000000000E+000        
  0.000000000000000E+000  0.000000000000000E+000  0.000000000000000E+000        
  0.000000000000000E+000  0.000000000000000E+000                                
  0.653300000000000       0.374513000000000       0.000000000000000E+000        
   1.00000000000000       0.000000000000000E+000  0.000000000000000E+000        
  0.000000000000000E+000  0.000000000000000E+000  0.000000000000000E+000        
  0.000000000000000E+000  0.000000000000000E+000                                
  0.268600000000000       0.348414000000000       0.000000000000000E+000        
  0.000000000000000E+000   1.00000000000000       0.000000000000000E+000        
  0.000000000000000E+000  0.000000000000000E+000  0.000000000000000E+000        
  0.000000000000000E+000  0.000000000000000E+000                                
  0.106700000000000       0.128340000000000       0.000000000000000E+000        
  0.000000000000000E+000  0.000000000000000E+000   1.00000000000000             
  0.000000000000000E+000  0.000000000000000E+000  0.000000000000000E+000        
  0.000000000000000E+000  0.000000000000000E+000                                
   10.7600000000000       0.000000000000000E+000  0.000000000000000E+000        
  0.000000000000000E+000  0.000000000000000E+000  0.000000000000000E+000        
   1.00000000000000       0.000000000000000E+000  0.000000000000000E+000        
  0.000000000000000E+000  0.000000000000000E+000                                
   27.1800000000000       0.000000000000000E+000  0.000000000000000E+000        
  0.000000000000000E+000  0.000000000000000E+000  0.000000000000000E+000        
  0.000000000000000E+000   1.00000000000000       0.000000000000000E+000        
  0.000000000000000E+000  0.000000000000000E+000                                
   68.6560000000000       0.000000000000000E+000  0.000000000000000E+000        
  0.000000000000000E+000  0.000000000000000E+000  0.000000000000000E+000        
  0.000000000000000E+000  0.000000000000000E+000   1.00000000000000             
  0.000000000000000E+000  0.000000000000000E+000                                
   173.425000000000       0.000000000000000E+000  0.000000000000000E+000        
  0.000000000000000E+000  0.000000000000000E+000  0.000000000000000E+000        
  0.000000000000000E+000  0.000000000000000E+000  0.000000000000000E+000        
   1.00000000000000       0.000000000000000E+000                                
  3.690000000000000E-002  0.000000000000000E+000  0.000000000000000E+000        
  0.000000000000000E+000  0.000000000000000E+000  0.000000000000000E+000        
  0.000000000000000E+000  0.000000000000000E+000  0.000000000000000E+000        
  0.000000000000000E+000   1.00000000000000                                     
    8    8                                                                      
   4.64700000000000        1.00000000000000       0.000000000000000E+000        
  0.000000000000000E+000  0.000000000000000E+000  0.000000000000000E+000        
  0.000000000000000E+000  0.000000000000000E+000  0.000000000000000E+000        
   1.81300000000000       0.000000000000000E+000   1.00000000000000             
  0.000000000000000E+000  0.000000000000000E+000  0.000000000000000E+000        
  0.000000000000000E+000  0.000000000000000E+000  0.000000000000000E+000        
  0.707000000000000       0.000000000000000E+000  0.000000000000000E+000        
   1.00000000000000       0.000000000000000E+000  0.000000000000000E+000        
  0.000000000000000E+000  0.000000000000000E+000  0.000000000000000E+000        
  0.276000000000000       0.000000000000000E+000  0.000000000000000E+000        
  0.000000000000000E+000   1.00000000000000       0.000000000000000E+000        
  0.000000000000000E+000  0.000000000000000E+000  0.000000000000000E+000        
   14.0530000000000       0.000000000000000E+000  0.000000000000000E+000        
  0.000000000000000E+000  0.000000000000000E+000   1.00000000000000             
  0.000000000000000E+000  0.000000000000000E+000  0.000000000000000E+000        
   39.0810000000000       0.000000000000000E+000  0.000000000000000E+000        
  0.000000000000000E+000  0.000000000000000E+000  0.000000000000000E+000        
   1.00000000000000       0.000000000000000E+000  0.000000000000000E+000        
   108.685000000000       0.000000000000000E+000  0.000000000000000E+000        
  0.000000000000000E+000  0.000000000000000E+000  0.000000000000000E+000        
  0.000000000000000E+000   1.00000000000000       0.000000000000000E+000        
  9.710000000000001E-002  0.000000000000000E+000  0.000000000000000E+000        
  0.000000000000000E+000  0.000000000000000E+000  0.000000000000000E+000        
  0.000000000000000E+000  0.000000000000000E+000   1.00000000000000             
    6    6                                                                      
   2.94200000000000        1.00000000000000       0.000000000000000E+000        
  0.000000000000000E+000  0.000000000000000E+000  0.000000000000000E+000        
  0.000000000000000E+000                                                        
   1.20400000000000       0.000000000000000E+000   1.00000000000000             
  0.000000000000000E+000  0.000000000000000E+000  0.000000000000000E+000        
  0.000000000000000E+000                                                        
  0.493000000000000       0.000000000000000E+000  0.000000000000000E+000        
   1.00000000000000       0.000000000000000E+000  0.000000000000000E+000        
  0.000000000000000E+000                                                        
   14.3570000000000       0.000000000000000E+000  0.000000000000000E+000        
  0.000000000000000E+000   1.00000000000000       0.000000000000000E+000        
  0.000000000000000E+000                                                        
   52.6900000000000       0.000000000000000E+000  0.000000000000000E+000        
  0.000000000000000E+000  0.000000000000000E+000   1.00000000000000             
  0.000000000000000E+000                                                        
  0.192000000000000       0.000000000000000E+000  0.000000000000000E+000        
  0.000000000000000E+000  0.000000000000000E+000  0.000000000000000E+000        
   1.00000000000000                                                             
    4    4                                                                      
   2.51100000000000        1.00000000000000       0.000000000000000E+000        
  0.000000000000000E+000  0.000000000000000E+000                                
  0.942000000000000       0.000000000000000E+000   1.00000000000000             
  0.000000000000000E+000  0.000000000000000E+000                                
   41.1200000000000       0.000000000000000E+000  0.000000000000000E+000        
   1.00000000000000       0.000000000000000E+000                                
  0.436000000000000       0.000000000000000E+000  0.000000000000000E+000        
  0.000000000000000E+000   1.00000000000000                                     
    2    2                                                                      
   1.76800000000000        1.00000000000000       0.000000000000000E+000        
  0.788000000000000       0.000000000000000E+000   1.00000000000000             
FINISH                                                                          
 
********************************************************************************
 ONE- AND TWO-ELECTRON INTEGRALS OVER SYMMETRY-ADAPTED AOS ARE CALCULATED.

  SPHERICAL HARMONICS ARE USED.
  
  INTEGRALS LESS THAN  0.10E-13 ARE NEGLECTED.

  NUCLEAR REPULSION ENERGY :    0.0000000000 A.U.
  @MOLECU-I, ONE ELECTRON INTEGRALS (CPU/WALL):        0.05/       0.05 SECONDS.
  @TWOEL-I,     354701 INTEGRALS OF SYMMETRY TYPE  I I I I
  @TWOEL-I,    3162072 INTEGRALS OF SYMMETRY TYPE  I J I J
  @TWOEL-I,    1814712 INTEGRALS OF SYMMETRY TYPE  I I J J
  @TWOEL-I,    7384599 INTEGRALS OF SYMMETRY TYPE  I J K L
  @TWOEL-I, TOTAL NUMBER OF 2-E INTEGRALS   12716084.
  @MOLECU-I, TWO ELECTRON INTEGRALS (CPU/WALL):       35.61/      35.62 SECONDS.
 @CHECKOUT-I, Total execution time (CPU/WALL):       35.67/      35.70 seconds.

OMP_NUM_THREADS not specified; defaulting to 1
Running with 1 threads/proc

--executable xvmol finished with status     0 in       35.73 seconds (walltime).
 --invoking executable--
/cvmfs/restricted.computecanada.ca/easybuild/software/2020/avx2/Compiler/intel2020/cfour/2.1/bin/xvmol2ja
 @GETMEM-I,  Allocated   28610 MB of main memory.
 @CHECKOUT-I, Total execution time (CPU/WALL):        0.05/       0.03 seconds.
--executable xvmol2ja finished with status     0 in        0.07 seconds (walltime).
 --invoking executable--
/cvmfs/restricted.computecanada.ca/easybuild/software/2020/avx2/Compiler/intel2020/cfour/2.1/bin/xvscf
  There are  181 functions in the AO basis.

  There are 8 irreducible representations.

       Irrep        # of functions
         1                 39
         2                 28
         3                 28
         4                 16
         5                 28
         6                 16
         7                 16
         8                 10


  Parameters for SCF calculation: 
        SCF reference function: ROHF  
  Maximum number of iterations: 9999
     Full symmetry point group: I h 
     Computational point group: D2h 
        Initial density matrix: MOREAD                 
     SCF convergence tolerance: 10**(-10)
  DIIS convergence acceleration:  ON
          Latest start for DIIS:   5
                     DIIS order:   6

     Alpha population by irrep:   2    1    1    0    1    0    0    0
      Beta population by irrep:   2    0    0    0    0    0    0    0


  Memory information:    2018302 words required.
  Fock matrices are constructed from AO integral file.
 @GETMEM-I,  Allocated      15 MB of main memory.
  Initialization and symmetry analysis required      0.003 seconds.

 total no. of electrons in initial guess :  0.000000000000000E+000
 total no. of electrons in initial guess :  0.000000000000000E+000
  --------------------------------------------------------------------
  Iteration         Total Energy            Largest Density Difference
  --------------------------------------------------------------------
       0             0.000000000000000              0.0000000000D+00
   current occupation vector 
     2  1  1  0  1  0  0  0
     2  0  0  0  0  0  0  0
       1           -49.152270570979930              0.1074926886D+02
   current occupation vector 
     2  1  1  0  1  0  0  0
     2  0  0  0  0  0  0  0
       2           -51.266670352546960              0.1074774545D+02
   current occupation vector 
     2  1  1  0  1  0  0  0
     2  0  0  0  0  0  0  0
       3           -53.908847981444318              0.2146916596D+01
   current occupation vector 
     2  1  1  0  1  0  0  0
     2  0  0  0  0  0  0  0
       4           -52.220188620417453              0.2117929678D+01
   current occupation vector 
     2  1  1  0  1  0  0  0
     2  0  0  0  0  0  0  0
       5           -54.074649396914694              0.1781411571D+01
   current occupation vector 
     2  1  1  0  1  0  0  0
     2  0  0  0  0  0  0  0
       6           -54.358480438305868              0.6452675903D+00
   current occupation vector 
     2  1  1  0  1  0  0  0
     2  0  0  0  0  0  0  0
       7           -54.394871911408579              0.1751815501D+00
   current occupation vector 
     2  1  1  0  1  0  0  0
     2  0  0  0  0  0  0  0
       8           -54.395960312564171              0.1596722330D+00
   current occupation vector 
     2  1  1  0  1  0  0  0
     2  0  0  0  0  0  0  0
       9           -54.400744505494600              0.8890375687D-01
   current occupation vector 
     2  1  1  0  1  0  0  0
     2  0  0  0  0  0  0  0
      10           -54.400849421484438              0.7800348889D-02
   current occupation vector 
     2  1  1  0  1  0  0  0
     2  0  0  0  0  0  0  0
      11           -54.400855786369654              0.2459251103D-02
   current occupation vector 
     2  1  1  0  1  0  0  0
     2  0  0  0  0  0  0  0
      12           -54.400855790864682              0.6140114573D-04
   current occupation vector 
     2  1  1  0  1  0  0  0
     2  0  0  0  0  0  0  0
      13           -54.400855790879156              0.3288298402D-05
   current occupation vector 
     2  1  1  0  1  0  0  0
     2  0  0  0  0  0  0  0
      14           -54.400855790879184              0.4857757426D-06
   current occupation vector 
     2  1  1  0  1  0  0  0
     2  0  0  0  0  0  0  0
      15           -54.400855790879220              0.4084974092D-07
   current occupation vector 
     2  1  1  0  1  0  0  0
     2  0  0  0  0  0  0  0
      16           -54.400855790879255              0.2921376569D-08
   current occupation vector 
     2  1  1  0  1  0  0  0
     2  0  0  0  0  0  0  0
      17           -54.400855790879262              0.1347746359D-09
   current occupation vector 
     2  1  1  0  1  0  0  0
     2  0  0  0  0  0  0  0

  SCF has converged.

 Density matrix saved to file den.dat
 total alpha spin electron number:   5.00000000000001     
 total  beta spin electron number:   2.00000000000000     
     E(ROHF)=       -54.400855790879298              0.3863509512D-10

  Eigenvector printing suppressed.


       The average multiplicity is    4.0000000
  The expectation value of S**2 is    3.7500000

 @PUTMOS-I, Writing converged MOs to NEWMOS. 
 @PUTMOS-I, Symmetry   1 Full Blocks  9 Partial Blocksize   3
 @PUTMOS-I, Symmetry   2 Full Blocks  7 Partial Blocksize   0
 @PUTMOS-I, Symmetry   3 Full Blocks  7 Partial Blocksize   0
 @PUTMOS-I, Symmetry   4 Full Blocks  4 Partial Blocksize   0
 @PUTMOS-I, Symmetry   5 Full Blocks  7 Partial Blocksize   0
 @PUTMOS-I, Symmetry   6 Full Blocks  4 Partial Blocksize   0
 @PUTMOS-I, Symmetry   7 Full Blocks  4 Partial Blocksize   0
 @PUTMOS-I, Symmetry   8 Full Blocks  2 Partial Blocksize   2
 @PUTFOCK-I, Writing converged Fock matrix to NEWFOCK. 
 @PUTFOCK-I, Symmetry   1 Full Blocks  9 Partial Blocksize   3
 @PUTFOCK-I, Symmetry   2 Full Blocks  7 Partial Blocksize   0
 @PUTFOCK-I, Symmetry   3 Full Blocks  7 Partial Blocksize   0
 @PUTFOCK-I, Symmetry   4 Full Blocks  4 Partial Blocksize   0
 @PUTFOCK-I, Symmetry   5 Full Blocks  7 Partial Blocksize   0
 @PUTFOCK-I, Symmetry   6 Full Blocks  4 Partial Blocksize   0
 @PUTFOCK-I, Symmetry   7 Full Blocks  4 Partial Blocksize   0
 @PUTFOCK-I, Symmetry   8 Full Blocks  2 Partial Blocksize   2
  @DMPJOB-I, Rotating orbitals to semicanonical basis.
             *** Eigenvalues correspond to new basis. ***

  @PRJDEN-I, Basis set contains h and/or higher angular momentum functions.
             Analysis of density matrix symmetry not available.
             Check irreps of the molecular orbitals in the full point group
             for presence of an asymmetric solution.

 
  ORBITAL EIGENVALUES (ALPHA)  (1H = 27.2113834 eV)

       MO #        E(hartree)               E(eV)           FULLSYM    COMPSYM
       ----   --------------------   --------------------   -------   ---------
    1     1         -15.6725888401        -426.4728237982      Ag        Ag (1)
    2     2          -1.1510458799         -31.3215507482      Ag        Ag (1)
    3   112          -0.5675911435         -15.4449402207     T1u       B1u (5)
    4    40          -0.5675911435         -15.4449402207     T1u       B2u (2)
    5    68          -0.5675911435         -15.4449402207     T1u       B3u (3)
  +++++++++++++++++++++++++++++++++++++++++++++++++++++++++++++++++++++++++++++
    6   113           0.0884464743           2.4067509226     T1u       B1u (5)
    7    41           0.0884464743           2.4067509226     T1u       B2u (2)
    8    69           0.0884464743           2.4067509226     T1u       B3u (3)
    9     3           0.0953492747           2.5945856706      Ag        Ag (1)
   10   156           0.2962599856           8.0616440554      Hg       B2g (7)
   11     4           0.2962599856           8.0616440554      Hg        Ag (1)
   12    96           0.2962599856           8.0616440554      Hg       B1g (4)
   13     5           0.2962599856           8.0616440554      Hg        Ag (1)
   14   140           0.2962599856           8.0616440554      Hg       B3g (6)
   15    42           0.3995481644          10.8722582895     T1u       B2u (2)
   16    70           0.3995481644          10.8722582895     T1u       B3u (3)
   17   114           0.3995481644          10.8722582895     T1u       B1u (5)
   18     6           0.5597097651          15.2304770115      Ag        Ag (1)
   19    43           0.7814268423          21.2637054044       u       B2u (2)
   20   115           0.7814268423          21.2637054044       u       B1u (5)
   21   116           0.7814268423          21.2637054044       u       B1u (5)
   22    44           0.7814268423          21.2637054044       u       B2u (2)
   23   172           0.7814268423          21.2637054044       u        Au (8)
   24    71           0.7814268423          21.2637054044       u       B3u (3)
   25    72           0.7814268423          21.2637054044       u       B3u (3)
   26   157           0.9301908598          25.3117801225      Hg       B2g (7)
   27    97           0.9301908598          25.3117801225      Hg       B1g (4)
   28     7           0.9301908598          25.3117801225      Hg        Ag (1)
   29     8           0.9301908598          25.3117801225      Hg        Ag (1)
   30   141           0.9301908598          25.3117801225      Hg       B3g (6)
   31    45           1.3126379943          35.7186957270     T1u       B2u (2)
   32   117           1.3126379943          35.7186957270     T1u       B1u (5)
   33    73           1.3126379943          35.7186957270     T1u       B3u (3)
   34     9           2.1533285805          58.5950495889       g        Ag (1)
   35    98           2.1533285805          58.5950495889       g       B1g (4)
   36   142           2.1533285805          58.5950495889       g       B3g (6)
   37    10           2.1533285805          58.5950495889       g        Ag (1)
   38    11           2.1533285805          58.5950495889       g        Ag (1)
   39   158           2.1533285805          58.5950495889       g       B2g (7)
   40   159           2.1533285805          58.5950495889       g       B2g (7)
   41   143           2.1533285805          58.5950495889       g       B3g (6)
   42    99           2.1533285805          58.5950495889       g       B1g (4)
   43    12           2.1589682858          58.7485137722      Ag        Ag (1)
   44   118           2.2962826406          62.4850273277       u       B1u (5)
   45   119           2.2962826406          62.4850273277       u       B1u (5)
   46    46           2.2962826406          62.4850273277       u       B2u (2)
   47   173           2.2962826406          62.4850273277       u        Au (8)
   48    74           2.2962826406          62.4850273277       u       B3u (3)
   49    47           2.2962826406          62.4850273277       u       B2u (2)
   50    75           2.2962826406          62.4850273277       u       B3u (3)
   51    13           2.4658730802          67.0998178014      Hg        Ag (1)
   52    14           2.4658730802          67.0998178014      Hg        Ag (1)
   53   144           2.4658730802          67.0998178014      Hg       B3g (6)
   54   100           2.4658730802          67.0998178014      Hg       B1g (4)
   55   160           2.4658730802          67.0998178014      Hg       B2g (7)
   56    48           3.7420844947         101.8272959008     T1u       B2u (2)
   57   120           3.7420844947         101.8272959008     T1u       B1u (5)
   58    76           3.7420844947         101.8272959008     T1u       B3u (3)
   59   121           4.7303337184         128.7189244203               B1u (5)
   60   174           4.7303337184         128.7189244203                Au (8)
   61    77           4.7303337184         128.7189244203               B3u (3)
   62    49           4.7303337184         128.7189244203               B2u (2)
   63    78           4.7303337184         128.7189244203               B3u (3)
   64   175           4.7303337184         128.7189244203                Au (8)
   65    50           4.7303337184         128.7189244203               B2u (2)
   66   122           4.7303337184         128.7189244203               B1u (5)
   67   123           4.7303337184         128.7189244203               B1u (5)
   68    51           4.7303337184         128.7189244203               B2u (2)
   69    79           4.7303337184         128.7189244203               B3u (3)
   70    15           5.6457307873         153.6281450256       g        Ag (1)
   71   101           5.6457307873         153.6281450256       g       B1g (4)
   72    16           5.6457307873         153.6281450256       g        Ag (1)
   73   145           5.6457307873         153.6281450256       g       B3g (6)
   74    17           5.6457307873         153.6281450256       g        Ag (1)
   75   161           5.6457307873         153.6281450256       g       B2g (7)
   76   146           5.6457307873         153.6281450256       g       B3g (6)
   77   102           5.6457307873         153.6281450256       g       B1g (4)
   78   162           5.6457307873         153.6281450256       g       B2g (7)
   79   124           5.7788820618         157.2513754072       u       B1u (5)
   80   125           5.7788820618         157.2513754072       u       B1u (5)
   81    52           5.7788820618         157.2513754072       u       B2u (2)
   82   176           5.7788820618         157.2513754072       u        Au (8)
   83    80           5.7788820618         157.2513754072       u       B3u (3)
   84    53           5.7788820618         157.2513754072       u       B2u (2)
   85    81           5.7788820618         157.2513754072       u       B3u (3)
   86   163           6.4351119566         175.1082986742      Hg       B2g (7)
   87    18           6.4351119566         175.1082986742      Hg        Ag (1)
   88   147           6.4351119566         175.1082986742      Hg       B3g (6)
   89    19           6.4351119566         175.1082986742      Hg        Ag (1)
   90   103           6.4351119566         175.1082986742      Hg       B1g (4)
   91    20           7.2122345688         196.2548800232      Ag        Ag (1)
   92   126          10.2954280775         280.1528406828     T1u       B1u (5)
   93    54          10.2954280775         280.1528406829     T1u       B2u (2)
   94    82          10.2954280775         280.1528406830     T1u       B3u (3)
   95    83          12.3751531040         336.7450357471               B3u (3)
   96    55          12.3751531040         336.7450357471               B2u (2)
   97   177          12.3751531040         336.7450357471                Au (8)
   98    84          12.3751531040         336.7450357471               B3u (3)
   99   127          12.3751531040         336.7450357471               B1u (5)
  100    56          12.3751531040         336.7450357471               B2u (2)
  101   178          12.3751531040         336.7450357471                Au (8)
  102   128          12.3751531040         336.7450357471               B1u (5)
  103    85          12.3751531040         336.7450357471               B3u (3)
  104    57          12.3751531040         336.7450357471               B2u (2)
  105   129          12.3751531040         336.7450357471               B1u (5)
  106    58          14.4575649252         393.4103422106       u       B2u (2)
  107   130          14.4575649252         393.4103422106       u       B1u (5)
  108    59          14.4575649252         393.4103422106       u       B2u (2)
  109   131          14.4575649252         393.4103422106       u       B1u (5)
  110    86          14.4575649252         393.4103422106       u       B3u (3)
  111   179          14.4575649252         393.4103422106       u        Au (8)
  112    87          14.4575649252         393.4103422106       u       B3u (3)
  113    21          14.6138923716         397.6642282910       g        Ag (1)
  114   104          14.6138923716         397.6642282910       g       B1g (4)
  115    22          14.6138923716         397.6642282910       g        Ag (1)
  116    23          14.6138923716         397.6642282910       g        Ag (1)
  117   148          14.6138923716         397.6642282910       g       B3g (6)
  118   164          14.6138923716         397.6642282910       g       B2g (7)
  119   105          14.6138923716         397.6642282910       g       B1g (4)
  120   149          14.6138923716         397.6642282910       g       B3g (6)
  121   165          14.6138923716         397.6642282910       g       B2g (7)
  122    24          17.1211641269         465.8905613122      Hg        Ag (1)
  123   166          17.1211641269         465.8905613122      Hg       B2g (7)
  124   150          17.1211641269         465.8905613122      Hg       B3g (6)
  125    25          17.1211641269         465.8905613122      Hg        Ag (1)
  126   106          17.1211641269         465.8905613122      Hg       B1g (4)
  127    26          22.1971664760         604.0156073711      Ag        Ag (1)
  128   132          29.1630286770         793.5663544349     T1u       B1u (5)
  129    60          29.1630286770         793.5663544350     T1u       B2u (2)
  130    88          29.1630286770         793.5663544351     T1u       B3u (3)
  131   151          50.1293303841        1364.0884286671      Hg       B3g (6)
  132   167          50.1293303841        1364.0884286671      Hg       B2g (7)
  133    27          50.1293303841        1364.0884286671      Hg        Ag (1)
  134    28          50.1293303841        1364.0884286671      Hg        Ag (1)
  135   107          50.1293303841        1364.0884286671      Hg       B1g (4)
  136    61          58.4751717469        1591.1903177855       u       B2u (2)
  137   180          58.4751717469        1591.1903177855       u        Au (8)
  138    62          58.4751717469        1591.1903177855       u       B2u (2)
  139   133          58.4751717469        1591.1903177855       u       B1u (5)
  140   134          58.4751717469        1591.1903177855       u       B1u (5)
  141    89          58.4751717469        1591.1903177855       u       B3u (3)
  142    90          58.4751717469        1591.1903177855       u       B3u (3)
  143    29          63.5743263361        1729.9453683291      Ag        Ag (1)
  144   135          82.4615698622        2243.8933932860     T1u       B1u (5)
  145    63          82.4615698622        2243.8933932860     T1u       B2u (2)
  146    91          82.4615698622        2243.8933932861     T1u       B3u (3)
  147    30         150.3406337660        4090.9766260057      Hg        Ag (1)
  148   168         150.3406337660        4090.9766260057      Hg       B2g (7)
  149   152         150.3406337660        4090.9766260057      Hg       B3g (6)
  150    31         150.3406337660        4090.9766260057      Hg        Ag (1)
  151   108         150.3406337660        4090.9766260057      Hg       B1g (4)
  152    32         170.1538095521        4630.1205486937      Ag        Ag (1)
  153   153         209.0006218286        5687.1960514164       g       B3g (6)
  154    33         209.0006218286        5687.1960514164       g        Ag (1)
  155   154         209.0006218286        5687.1960514164       g       B3g (6)
  156   109         209.0006218286        5687.1960514164       g       B1g (4)
  157   169         209.0006218286        5687.1960514164       g        Ag (7)
  158    34         209.0006218286        5687.1960514164       g       B2g (1)
  159   170         209.0006218286        5687.1960514164       g       B2g (7)
  160   110         209.0006218286        5687.1960514165       g       B1g (4)
  161    35         209.0006218286        5687.1960514165       g        Ag (1)
  162   136         229.4701977492        6244.2015298267     T1u       B1u (5)
  163    64         229.4701977492        6244.2015298267     T1u       B2u (2)
  164    92         229.4701977492        6244.2015298269     T1u       B3u (3)
  165    93         236.1943557678        6427.1751717149       u       B3u (3)
  166    65         236.1943557678        6427.1751717149       u       B2u (2)
  167   137         236.1943557678        6427.1751717149       u       B1u (5)
  168   181         236.1943557678        6427.1751717149       u        Au (8)
  169    94         236.1943557678        6427.1751717149       u       B3u (3)
  170    66         236.1943557678        6427.1751717149       u       B2u (2)
  171   138         236.1943557678        6427.1751717149       u       B1u (5)
  172    36         447.9768249786       12190.0691388063      Ag        Ag (1)
  173    37         456.6622691248       12426.4120894688      Hg        Ag (1)
  174    38         456.6622691248       12426.4120894688      Hg        Ag (1)
  175   155         456.6622691248       12426.4120894688      Hg       B3g (6)
  176   111         456.6622691248       12426.4120894688      Hg       B1g (4)
  177   171         456.6622691248       12426.4120894688      Hg       B2g (7)
  178    95         643.7097682805       17516.2333030047     T1u       B3u (3)
  179   139         643.7097682805       17516.2333030047     T1u       B1u (5)
  180    67         643.7097682805       17516.2333030048     T1u       B2u (2)
  181    39        1568.3355750397       42676.5806322654      Ag        Ag (1)


 
  ORBITAL EIGENVALUES ( BETA)  (1H = 27.2113834 eV)

       MO #        E(hartree)               E(eV)           FULLSYM    COMPSYM
       ----   --------------------   --------------------   -------   ---------
    1     1         -15.5858905563        -424.1136435592      Ag        Ag (1)
    2     2          -0.7393377741         -20.1184036344      Ag        Ag (1)
  +++++++++++++++++++++++++++++++++++++++++++++++++++++++++++++++++++++++++++++
    3    68           0.0642348711           1.7479197048     T1u       B3u (3)
    4   112           0.0642348711           1.7479197048     T1u       B1u (5)
    5    40           0.0642348711           1.7479197048     T1u       B2u (2)
    6     3           0.1071452909           2.9155715907      Ag        Ag (1)
    7    69           0.1654937422           4.5033136693     T1u       B3u (3)
    8    41           0.1654937422           4.5033136693     T1u       B2u (2)
    9   113           0.1654937422           4.5033136693     T1u       B1u (5)
   10   156           0.3072447492           8.3605546675      Hg       B2g (7)
   11     4           0.3072447492           8.3605546675      Hg        Ag (1)
   12     5           0.3072447492           8.3605546675      Hg        Ag (1)
   13    96           0.3072447492           8.3605546675      Hg       B1g (4)
   14   140           0.3072447492           8.3605546675      Hg       B3g (6)
   15    70           0.4986937323          13.5701463490     T1u       B3u (3)
   16    42           0.4986937323          13.5701463490     T1u       B2u (2)
   17   114           0.4986937323          13.5701463490     T1u       B1u (5)
   18     6           0.6108552436          16.6222162356      Ag        Ag (1)
   19   115           0.7912344953          21.5305852121       u       B1u (5)
   20    43           0.7912344953          21.5305852121       u       B2u (2)
   21   116           0.7912344953          21.5305852121       u       B1u (5)
   22    44           0.7912344953          21.5305852121       u       B2u (2)
   23   172           0.7912344953          21.5305852121       u        Au (8)
   24    71           0.7912344953          21.5305852121       u       B3u (3)
   25    72           0.7912344953          21.5305852121       u       B3u (3)
   26     7           1.0087595897          27.4497439529      Hg        Ag (1)
   27     8           1.0087595897          27.4497439529      Hg        Ag (1)
   28    97           1.0087595897          27.4497439529      Hg       B1g (4)
   29   157           1.0087595897          27.4497439529      Hg       B2g (7)
   30   141           1.0087595897          27.4497439529      Hg       B3g (6)
   31   117           1.4351186509          39.0515638333     T1u       B1u (5)
   32    45           1.4351186509          39.0515638333     T1u       B2u (2)
   33    73           1.4351186509          39.0515638333     T1u       B3u (3)
   34    98           2.1705382673          59.0633489755       g       B1g (4)
   35   142           2.1705382673          59.0633489755       g       B3g (6)
   36     9           2.1705382673          59.0633489755       g        Ag (1)
   37    10           2.1705382673          59.0633489755       g        Ag (1)
   38   158           2.1705382673          59.0633489755       g       B2g (7)
   39    11           2.1705382673          59.0633489755       g        Ag (1)
   40   159           2.1705382673          59.0633489755       g       B2g (7)
   41   143           2.1705382673          59.0633489755       g       B3g (6)
   42    99           2.1705382673          59.0633489755       g       B1g (4)
   43    12           2.2495752339          61.2140541756      Ag        Ag (1)
   44   118           2.3453999387          63.8215769589       u       B1u (5)
   45   119           2.3453999387          63.8215769589       u       B1u (5)
   46    46           2.3453999387          63.8215769589       u       B2u (2)
   47   173           2.3453999387          63.8215769589       u        Au (8)
   48    74           2.3453999387          63.8215769589       u       B3u (3)
   49    47           2.3453999387          63.8215769589       u       B2u (2)
   50    75           2.3453999387          63.8215769589       u       B3u (3)
   51   160           2.6042917460          70.8663811862      Hg       B2g (7)
   52    13           2.6042917460          70.8663811862      Hg        Ag (1)
   53   144           2.6042917460          70.8663811862      Hg       B3g (6)
   54   100           2.6042917460          70.8663811862      Hg       B1g (4)
   55    14           2.6042917460          70.8663811862      Hg        Ag (1)
   56    48           3.8569552362         104.9530876886     T1u       B2u (2)
   57   120           3.8569552362         104.9530876886     T1u       B1u (5)
   58    76           3.8569552362         104.9530876886     T1u       B3u (3)
   59   174           4.7528687691         129.3321343269                Au (8)
   60   121           4.7528687691         129.3321343269               B1u (5)
   61    77           4.7528687691         129.3321343269               B3u (3)
   62    78           4.7528687691         129.3321343269               B2u (3)
   63    49           4.7528687691         129.3321343269               B3u (2)
   64   175           4.7528687691         129.3321343269                Au (8)
   65    50           4.7528687691         129.3321343269               B2u (2)
   66    51           4.7528687691         129.3321343269               B2u (2)
   67   122           4.7528687691         129.3321343269               B1u (5)
   68   123           4.7528687691         129.3321343269               B1u (5)
   69    79           4.7528687691         129.3321343269               B3u (3)
   70    15           5.6920915155         154.8896845765       g        Ag (1)
   71   101           5.6920915155         154.8896845765       g       B1g (4)
   72    16           5.6920915155         154.8896845765       g        Ag (1)
   73    17           5.6920915155         154.8896845765       g        Ag (1)
   74   145           5.6920915155         154.8896845765       g       B3g (6)
   75   102           5.6920915155         154.8896845765       g       B1g (4)
   76   146           5.6920915155         154.8896845765       g       B3g (6)
   77   161           5.6920915155         154.8896845765       g       B2g (7)
   78   162           5.6920915155         154.8896845765       g       B2g (7)
   79   124           5.8627740582         159.5341926854       u       B1u (5)
   80    80           5.8627740582         159.5341926854       u       B3u (3)
   81   125           5.8627740582         159.5341926854       u       B1u (5)
   82   176           5.8627740582         159.5341926854       u        Au (8)
   83    52           5.8627740582         159.5341926854       u       B2u (2)
   84    81           5.8627740582         159.5341926854       u       B3u (3)
   85    53           5.8627740582         159.5341926854       u       B2u (2)
   86   163           6.5609923479         178.5336782639      Hg       B2g (7)
   87    18           6.5609923479         178.5336782639      Hg        Ag (1)
   88    19           6.5609923479         178.5336782639      Hg        Ag (1)
   89   147           6.5609923479         178.5336782639      Hg       B3g (6)
   90   103           6.5609923479         178.5336782639      Hg       B1g (4)
   91    20           7.2983825210         198.5990849793      Ag        Ag (1)
   92   126          10.3793689455         282.4369878261     T1u       B1u (5)
   93    54          10.3793689455         282.4369878262     T1u       B2u (2)
   94    82          10.3793689455         282.4369878262     T1u       B3u (3)
   95    83          12.4187457474         337.9312518805               B3u (3)
   96    55          12.4187457474         337.9312518805               B2u (2)
   97   177          12.4187457474         337.9312518805                Au (8)
   98    84          12.4187457474         337.9312518805               B3u (3)
   99   127          12.4187457474         337.9312518805               B1u (5)
  100   178          12.4187457474         337.9312518805                Au (8)
  101   128          12.4187457474         337.9312518805               B1u (5)
  102    56          12.4187457474         337.9312518805               B2u (2)
  103    85          12.4187457474         337.9312518805               B3u (3)
  104   129          12.4187457474         337.9312518805               B1u (5)
  105    57          12.4187457474         337.9312518805               B2u (2)
  106    58          14.5379863751         395.5987211176       u       B2u (2)
  107    59          14.5379863751         395.5987211176       u       B2u (2)
  108   130          14.5379863751         395.5987211176       u       B1u (5)
  109   179          14.5379863751         395.5987211176       u        Au (8)
  110   131          14.5379863751         395.5987211176       u       B1u (5)
  111    86          14.5379863751         395.5987211176       u       B3u (3)
  112    87          14.5379863751         395.5987211176       u       B3u (3)
  113    21          14.6775577527         399.3966513838       g        Ag (1)
  114   104          14.6775577527         399.3966513838       g       B1g (4)
  115    22          14.6775577527         399.3966513838       g        Ag (1)
  116   164          14.6775577527         399.3966513838       g       B2g (7)
  117   148          14.6775577527         399.3966513838       g       B3g (6)
  118    23          14.6775577527         399.3966513838       g        Ag (1)
  119   105          14.6775577527         399.3966513838       g       B1g (4)
  120   149          14.6775577527         399.3966513838       g       B3g (6)
  121   165          14.6775577527         399.3966513838       g       B2g (7)
  122    24          17.2016954776         468.0819307707      Hg        Ag (1)
  123    25          17.2016954776         468.0819307707      Hg        Ag (1)
  124   150          17.2016954776         468.0819307707      Hg       B3g (6)
  125   106          17.2016954776         468.0819307707      Hg       B1g (4)
  126   166          17.2016954776         468.0819307707      Hg       B2g (7)
  127    26          22.2494307109         605.4377895048      Ag        Ag (1)
  128   132          29.2093064462         794.8256365548     T1u       B1u (5)
  129    60          29.2093064462         794.8256365548     T1u       B2u (2)
  130    88          29.2093064462         794.8256365549     T1u       B3u (3)
  131    27          50.1660844210        1365.0885568570      Hg        Ag (1)
  132   151          50.1660844210        1365.0885568570      Hg       B3g (6)
  133   167          50.1660844210        1365.0885568570      Hg       B2g (7)
  134    28          50.1660844210        1365.0885568570      Hg        Ag (1)
  135   107          50.1660844210        1365.0885568570      Hg       B1g (4)
  136    61          58.5131258382        1592.2231011153       u       B2u (2)
  137   180          58.5131258382        1592.2231011153       u        Au (8)
  138    62          58.5131258382        1592.2231011153       u       B2u (2)
  139   133          58.5131258382        1592.2231011153       u       B1u (5)
  140   134          58.5131258382        1592.2231011153       u       B1u (5)
  141    89          58.5131258382        1592.2231011153       u       B3u (3)
  142    90          58.5131258382        1592.2231011153       u       B3u (3)
  143    29          63.5980364411        1730.5905530863      Ag        Ag (1)
  144   135          82.4810724237        2244.4240849650     T1u       B1u (5)
  145    63          82.4810724237        2244.4240849650     T1u       B2u (2)
  146    91          82.4810724237        2244.4240849651     T1u       B3u (3)
  147    30         150.3529085515        4091.3106399008      Hg        Ag (1)
  148   168         150.3529085515        4091.3106399008      Hg       B2g (7)
  149   108         150.3529085515        4091.3106399008      Hg       B1g (4)
  150   152         150.3529085515        4091.3106399008      Hg       B3g (6)
  151    31         150.3529085515        4091.3106399008      Hg        Ag (1)
  152    32         170.1629806905        4630.3701080554      Ag        Ag (1)
  153   153         209.0119425435        5687.5041037306       g       B3g (6)
  154   169         209.0119425435        5687.5041037306       g       B2g (7)
  155   109         209.0119425435        5687.5041037306       g       B1g (4)
  156   154         209.0119425435        5687.5041037306       g       B3g (6)
  157    33         209.0119425435        5687.5041037306       g        Ag (1)
  158   170         209.0119425435        5687.5041037306       g       B2g (7)
  159    34         209.0119425435        5687.5041037306       g        Ag (1)
  160   110         209.0119425435        5687.5041037306       g       B1g (4)
  161    35         209.0119425435        5687.5041037306       g        Ag (1)
  162    64         229.4769443999        6244.3851155268     T1u       B2u (2)
  163   136         229.4769443999        6244.3851155269     T1u       B1u (5)
  164    92         229.4769443999        6244.3851155270     T1u       B3u (3)
  165    93         236.2027917792        6427.4047272530       u       B3u (3)
  166   137         236.2027917792        6427.4047272530       u       B1u (5)
  167   181         236.2027917792        6427.4047272530       u        Au (8)
  168    65         236.2027917792        6427.4047272530       u       B2u (2)
  169    94         236.2027917792        6427.4047272530       u       B3u (3)
  170    66         236.2027917792        6427.4047272530       u       B2u (2)
  171   138         236.2027917792        6427.4047272530       u       B1u (5)
  172    36         447.9798902100       12190.1525479946      Ag        Ag (1)
  173    37         456.6654862797       12426.4996327050      Hg        Ag (1)
  174    38         456.6654862797       12426.4996327050      Hg        Ag (1)
  175   111         456.6654862797       12426.4996327051      Hg       B1g (4)
  176   155         456.6654862797       12426.4996327051      Hg       B3g (6)
  177   171         456.6654862797       12426.4996327051      Hg       B2g (7)
  178    95         643.7117129380       17516.2862198277     T1u       B3u (3)
  179   139         643.7117129380       17516.2862198277     T1u       B1u (5)
  180    67         643.7117129380       17516.2862198278     T1u       B2u (2)
  181    39        1568.3366961491       42676.6111392013      Ag        Ag (1)


  VSCF finished.

 @CHECKOUT-I, Total execution time (CPU/WALL):        4.69/       2.71 seconds.
--executable xvscf finished with status     0 in        2.73 seconds (walltime).
 --invoking executable--
/cvmfs/restricted.computecanada.ca/easybuild/software/2020/avx2/Compiler/intel2020/cfour/2.1/bin/xvtran
 @GETMEM-I,  Allocated   28610 MB of main memory.
  Full UHF integral transformation
  Transformation of IIII integrals :
  2 passes through the AO integral file were required.
      354701 AO integrals were read.
      581941 MO integrals (Spin case AAAA) were written to HF2AA.
      581941 MO integrals (Spin case BBBB) were written to HF2BB.
     1161421 MO integrals (Spin case AABB) were written to HF2AB.
  Transformation of IIJJ integrals :
  2 passes through the AO integral file were required.
     1814712 AO integrals were read.
     2447550 MO integrals (Spin case AAAA) were written to HF2AA.
     2447550 MO integrals (Spin case BBBB) were written to HF2BB.
     4895100 MO integrals (Spin case AABB) were written to HF2AB.
  Transformation of IJIJ integrals :
  2 passes through the AO integral file were required.
     3162072 AO integrals were read.
     4535271 MO integrals (Spin case AAAA) were written to HF2AA.
     4535271 MO integrals (Spin case BBBB) were written to HF2BB.
     9056532 MO integrals (Spin case AABB) were written to HF2AB.
  Transformation of IJKL integrals :
  2 passes through the AO integral file were required.
     7384599 AO integrals were read.
     9564672 MO integrals (Spin case AAAA) were written to HF2AA.
     9564672 MO integrals (Spin case BBBB) were written to HF2BB.
    19129344 MO integrals (Spin case AABB) were written to HF2AB.
  Summary of active molecular orbitals: 
------------------------------------------------------------------------
                         * Spin case alpha *
 
  Index      Eigenvalue    Symmetry    Index      Eigenvalue    Symmetry
------------------------------------------------------------------------
     1       -15.6725888        1        92        82.4615699        3
     2        -1.1510459        1        93       229.4701977        3
     3        -0.5675911        2        94       236.1943558        3
     4        -0.5675911        3        95       236.1943558        3
     5        -0.5675911        5        96       643.7097683        3
     6         0.0953493        1        97         0.2962600        4
     7         0.2962600        1        98         0.9301909        4
     8         0.2962600        1        99         2.1533286        4
     9         0.5597098        1       100         2.1533286        4
    10         0.9301909        1       101         2.4658731        4
    11         0.9301909        1       102         5.6457308        4
    12         2.1533286        1       103         5.6457308        4
    13         2.1533286        1       104         6.4351120        4
    14         2.1533286        1       105        14.6138924        4
    15         2.1589683        1       106        14.6138924        4
    16         2.4658731        1       107        17.1211641        4
    17         2.4658731        1       108        50.1293304        4
    18         5.6457308        1       109       150.3406338        4
    19         5.6457308        1       110       209.0006218        4
    20         5.6457308        1       111       209.0006218        4
    21         6.4351120        1       112       456.6622691        4
    22         6.4351120        1       113         0.0884465        5
    23         7.2122346        1       114         0.3995482        5
    24        14.6138924        1       115         0.7814268        5
    25        14.6138924        1       116         0.7814268        5
    26        14.6138924        1       117         1.3126380        5
    27        17.1211641        1       118         2.2962826        5
    28        17.1211641        1       119         2.2962826        5
    29        22.1971665        1       120         3.7420845        5
    30        50.1293304        1       121         4.7303337        5
    31        50.1293304        1       122         4.7303337        5
    32        63.5743263        1       123         4.7303337        5
    33       150.3406338        1       124         5.7788821        5
    34       150.3406338        1       125         5.7788821        5
    35       170.1538096        1       126        10.2954281        5
    36       209.0006218        1       127        12.3751531        5
    37       209.0006218        1       128        12.3751531        5
    38       209.0006218        1       129        12.3751531        5
    39       447.9768250        1       130        14.4575649        5
    40       456.6622691        1       131        14.4575649        5
    41       456.6622691        1       132        29.1630287        5
    42      1568.3355750        1       133        58.4751717        5
    43         0.0884465        2       134        58.4751717        5
    44         0.3995482        2       135        82.4615699        5
    45         0.7814268        2       136       229.4701977        5
    46         0.7814268        2       137       236.1943558        5
    47         1.3126380        2       138       236.1943558        5
    48         2.2962826        2       139       643.7097683        5
    49         2.2962826        2       140         0.2962600        6
    50         3.7420845        2       141         0.9301909        6
    51         4.7303337        2       142         2.1533286        6
    52         4.7303337        2       143         2.1533286        6
    53         4.7303337        2       144         2.4658731        6
    54         5.7788821        2       145         5.6457308        6
    55         5.7788821        2       146         5.6457308        6
    56        10.2954281        2       147         6.4351120        6
    57        12.3751531        2       148        14.6138924        6
[...]
   4.75286876913785        5.86277405820691        5.86277405820699     
   10.3793689455054        12.4187457474305        12.4187457474305     
   12.4187457474306        14.5379863751302        14.5379863751303     
   29.2093064461718        58.5131258381855        58.5131258381856     
   82.4810724237226        229.476944399929        236.202791779156     
   236.202791779157        643.711712938038       0.307244749176251     
   1.00875958966733        2.17053826728572        2.17053826728576     
   2.60429174601382        5.69209151551282        5.69209151551285     
   6.56099234792620        14.6775577526793        14.6775577526794     
   17.2016954775878        50.1660844210146        150.352908551528     
   209.011942543524        209.011942543525        456.665486279727     
  6.423487108699982E-002  0.165493742200064       0.498693732306403     
  0.791234495342670       0.791234495342682        1.43511865086891     
   2.34539993872191        2.34539993872192        3.85695523618893     
   4.75286876913781        4.75286876913783        4.75286876913784     
   5.86277405820691        5.86277405820692        10.3793689455027     
   12.4187457474306        12.4187457474306        12.4187457474306     
   14.5379863751302        14.5379863751302        29.2093064461684     
   58.5131258381852        58.5131258381854        82.4810724237201     
   229.476944399925        236.202791779157        236.202791779158     
   643.711712938039       0.307244749176322        1.00875958966740     
   2.17053826728572        2.17053826728576        2.60429174601382     
   5.69209151551285        5.69209151551285        6.56099234792619     
   14.6775577526794        14.6775577526794        17.2016954775878     
   50.1660844210144        150.352908551528        209.011942543524     
   209.011942543524        456.665486279727       0.307244749176203     
   1.00875958966739        2.17053826728574        2.17053826728575     
   2.60429174601379        5.69209151551285        5.69209151551287     
   6.56099234792598        14.6775577526794        14.6775577526794     
   17.2016954775878        50.1660844210144        150.352908551528     
   209.011942543524        209.011942543524        456.665486279727     
  0.791234495342684        2.34539993872192        4.75286876913781     
   4.75286876913782        5.86277405820693        12.4187457474305     
   12.4187457474306        14.5379863751302        58.5131258381850     
   236.202791779157     
 @CHECKOUT-I, Total execution time (CPU/WALL):       14.43/       8.99 seconds.
--executable xvtran finished with status     0 in        9.03 seconds (walltime).
 --invoking executable--
/cvmfs/restricted.computecanada.ca/easybuild/software/2020/avx2/Compiler/intel2020/cfour/2.1/bin/xintprc
 @GETMEM-I,  Allocated   28610 MB of main memory.
  @GMOIAA-I, Processing MO integrals for spin case AA.
  @GMOIAA-I, Generation of integral list completed.
                      TYPE                NUMBER
                      ----               --------
                      PPPP              15296473
                      PPPH               1748211
                      PPHH                 51282
                      PHPH                 31479
                      PHHH                  1956
                      HHHH                    33

                     TOTAL              17129434
  @GMOIAA-I, Processing MO integrals for spin case BB.
  @GMOIAA-I, Generation of integral list completed.
                      TYPE                NUMBER
                      ----               --------
                      PPPP              16366993
                      PPPH                745704
                      PPHH                  9357
                      PHPH                  7152
                      PHHH                   222
                      HHHH                     6

                     TOTAL              17129434
  @GMOIAB-I, Processing MO integrals for spin case AB.
                      TYPE                NUMBER
                      ----               --------
                      PPPP              31629464
                      PPPH1H             1808676
                      PPPH2H              720696
                      PPHH                 42710
                      PHPH1P                6900
                      PHPH2P               32592
                      PHHH1P                 465
                      PHHH2P                 876
                      HHHH                    18

                     TOTAL              34242397

  @FORMT2-I, Second-order MP correlation energies:
  @FORMT2-I, Singles contribution will be calculated.
            ------------------------------------------------
            E(SCF)                  =    -54.400855790879 a.u.
            E2(AA)                  =     -0.036569081521 a.u.
            E2(BB)                  =     -0.000981515791 a.u.
            E2(AB)                  =     -0.127478655765 a.u.
            E2(SINGLE)              =     -0.002276830542 a.u.
            E2(TOT)                 =     -0.165029253077 a.u.
            Total MP2 energy        =    -54.568161874498 a.u.
            ------------------------------------------------
            ----------------------------------------------
                     Projected spin multiplicities: 
            ----------------------------------------------
             <0|S^2|0>                  =    3.7500000000.
             <0|S^2 T2|0>               =   -0.0000000000.
             Projected <0|S^2 exp(T)|0> =    3.7500000000.
             Approximate spin mult.     =    4.0000000000.
            ----------------------------------------------
   Largest T2 amplitudes for spin case AA:
   i   j   a   b             i   j   a   b             i   j   a   b
-----------------------------------------------------------------------------
[  4   3  98  11]-0.01442 [  5   3 114  44]-0.01437 [  5   4 114  71]-0.01437
[  4   3  71  44]-0.01437 [  5   3 117  47]-0.01344 [  5   4 117  74]-0.01344
[  4   3  74  47]-0.01344 [  5   3 141  10] 0.01339 [  5   3 114  47]-0.01238
[  5   4 114  74]-0.01238 [  4   3  74  44]-0.01238 [  5   3 117  44]-0.01238
[  4   3  71  47]-0.01238 [  5   4 117  71]-0.01238 [  5   4 157  10] 0.01159
-----------------------------------------------------------------------------
   Norm of T2AA vector (    19803 symmetry allowed elements):  0.0868742281.
-----------------------------------------------------------------------------
   Largest T2 amplitudes for spin case BB:
   i   j   a   b             i   j   a   b             i   j   a   b
-----------------------------------------------------------------------------
[  2   1  82  69]-0.00116 [  2   1  54  41]-0.00116 [  2   1 126 113]-0.00116
[  2   1  82  70]-0.00112 [  2   1  54  42]-0.00112 [  2   1 126 114]-0.00112
[  2   1  82  73]-0.00111 [  2   1  54  45]-0.00111 [  2   1 126 117]-0.00111
[  2   1 120 113] 0.00099 [  2   1  76  69] 0.00099 [  2   1  48  41] 0.00099
[  2   1 120 114] 0.00088 [  2   1  48  42] 0.00088 [  2   1  76  70] 0.00088
-----------------------------------------------------------------------------
   Norm of T2BB vector (     2205 symmetry allowed elements):  0.0055477870.
-----------------------------------------------------------------------------
   Largest T2 amplitudes for spin case AB:
       _       _                 _       _                 _       _
   i   j   a   b             i   j   a   b             i   j   a   b
-----------------------------------------------------------------------------
[  5   2  10 113]-0.02041 [  4   2  11  69] 0.01895 [  4   2 157 113]-0.01781
[  5   2 157  69]-0.01781 [  3   2 141 113]-0.01781 [  4   2  98  41]-0.01781
[  3   2  98  69]-0.01781 [  5   2 141  41]-0.01781 [  3   2  11  41]-0.01640
[  4   2  17  69] 0.01576 [  5   2 114   6] 0.01529 [  4   2  71   6] 0.01529
[  3   2  44   6] 0.01529 [  5   2  16 113] 0.01522 [  5   2 117   6] 0.01483
-----------------------------------------------------------------------------
   Norm of T2AB vector (    42710 symmetry allowed elements):  0.1401460287.
-----------------------------------------------------------------------------
 @CHECKOUT-I, Total execution time (CPU/WALL):       12.59/      12.70 seconds.
--executable xintprc finished with status     0 in       12.81 seconds (walltime).
  calling xvcc 
 --invoking executable--
/cvmfs/restricted.computecanada.ca/easybuild/software/2020/avx2/Compiler/intel2020/cfour/2.1/bin/xvcc
 @GETMEM-I,  Allocated   28610 MB of main memory.
   CCSDT   energy will be calculated.
   The reference state is a ROHF wave function.
   The total correlation energy is -0.167353272135 a.u.
  transposing abij 
   The total correlation energy is -0.180981783566 a.u.
  Convergence information after     1 iterations: 
  Largest element of residual vector : -0.47225001E-02.
  Largest element of DIIS residual   : -0.47225001E-02.
  transposing abij 
   The total correlation energy is -0.184086202811 a.u.
  Convergence information after     2 iterations: 
  Largest element of residual vector : -0.16989233E-02.
  Largest element of DIIS residual   : -0.17125570E-02.
  transposing abij 
   The total correlation energy is -0.185172747030 a.u.
  Convergence information after     3 iterations: 
  Largest element of residual vector : -0.56236152E-03.
  Largest element of DIIS residual   : -0.78503849E-03.
  transposing abij 
   The total correlation energy is -0.185353771936 a.u.
  Convergence information after     4 iterations: 
  Largest element of residual vector : -0.30321277E-03.
  Largest element of DIIS residual   : -0.16534102E-03.
  transposing abij 
   The total correlation energy is -0.185391002697 a.u.
  Convergence information after     5 iterations: 
  Largest element of residual vector : -0.11940540E-03.
  Largest element of DIIS residual   : -0.55408265E-04.
  transposing abij 
   The total correlation energy is -0.185393185065 a.u.
  Convergence information after     6 iterations: 
  Largest element of residual vector : -0.29431317E-04.
  Largest element of DIIS residual   : -0.23681632E-04.
  transposing abij 
   The total correlation energy is -0.185395519490 a.u.
  Convergence information after     7 iterations: 
  Largest element of residual vector : -0.91416329E-05.
  Largest element of DIIS residual   :  0.42538873E-05.
  transposing abij 
   The total correlation energy is -0.185396336887 a.u.
  Convergence information after     8 iterations: 
  Largest element of residual vector : -0.20716744E-05.
  Largest element of DIIS residual   : -0.12621469E-05.
  transposing abij 
   The total correlation energy is -0.185396331046 a.u.
  Convergence information after     9 iterations: 
  Largest element of residual vector : -0.52049286E-06.
  Largest element of DIIS residual   :  0.37343564E-06.
  transposing abij 
   The total correlation energy is -0.185396334126 a.u.
  Convergence information after    10 iterations: 
  Largest element of residual vector : -0.12062705E-06.
  Largest element of DIIS residual   : -0.11251211E-06.
  transposing abij 
   The total correlation energy is -0.185396347179 a.u.
  Convergence information after    11 iterations: 
  Largest element of residual vector : -0.54803606E-07.
  Largest element of DIIS residual   :  0.33566282E-07.
  transposing abij 
   The total correlation energy is -0.185396356246 a.u.
  Convergence information after    12 iterations: 
  Largest element of residual vector : -0.13731301E-07.
  Largest element of DIIS residual   : -0.43071932E-08.
  transposing abij 
   The total correlation energy is -0.185396359082 a.u.
  Convergence information after    13 iterations: 
  Largest element of residual vector : -0.78483783E-08.
  Largest element of DIIS residual   : -0.35390136E-08.
  transposing abij 
   The total correlation energy is -0.185396360163 a.u.
  Convergence information after    14 iterations: 
  Largest element of residual vector : -0.48515363E-08.
  Largest element of DIIS residual   : -0.28522946E-08.
  transposing abij 
   The total correlation energy is -0.185396360777 a.u.
  Convergence information after    15 iterations: 
  Largest element of residual vector : -0.12363136E-08.
  Largest element of DIIS residual   : -0.87837364E-09.
  transposing abij 
   The total correlation energy is -0.185396361005 a.u.
  Convergence information after    16 iterations: 
  Largest element of residual vector : -0.82153112E-09.
  Largest element of DIIS residual   : -0.35422147E-09.
  transposing abij 
   The total correlation energy is -0.185396361125 a.u.
  Convergence information after    17 iterations: 
  Largest element of residual vector : -0.32207426E-09.
  Largest element of DIIS residual   : -0.10157274E-09.
  transposing abij 
   The total correlation energy is -0.185396361185 a.u.
  Convergence information after    18 iterations: 
  Largest element of residual vector :  0.60011168E-10.
  Largest element of DIIS residual   : -0.16183484E-10.
  Amplitude equations converged in    18iterations.
   The total correlation energy is -0.185396361172 a.u.
   The CC iterations have converged.

            ----------------------------------------------
                     Projected spin multiplicities: 
            ----------------------------------------------
             <0|S^2|0>                  =    3.7500000000.
             <0|S^2 (T2+T1**2) |0>      =   -0.0000000000.
             <0|S^2 T1|0>               =    0.0000000000.
             Projected <0|S^2 exp(T)|0> =    3.7500000000.
             Approximate spin mult.     =    4.0000000000.
            ----------------------------------------------
   Largest T1 amplitudes for spin case AA:
   i       a                 i       a                 i       a    
-----------------------------------------------------------------------------
[  2       9    ]-0.02247 [  2       6    ] 0.01529 [  2      15    ] 0.01041
[  3      47    ] 0.00428 [  5     117    ] 0.00428 [  4      74    ] 0.00428
[  4      77    ]-0.00272 [  5     120    ]-0.00272 [  3      50    ]-0.00272
[  3      43    ]-0.00268 [  4      70    ]-0.00268 [  5     113    ]-0.00268
[  1      15    ]-0.00162 [  1      23    ] 0.00125 [  1       9    ] 0.00118
-----------------------------------------------------------------------------
   Norm of T1AA vector (      155 symmetry allowed elements):  0.0308909797.
-----------------------------------------------------------------------------
   Largest T2 amplitudes for spin case AA:
   i   j   a   b             i   j   a   b             i   j   a   b
-----------------------------------------------------------------------------
[  5   4 114  71]-0.01793 [  5   3 114  44]-0.01793 [  4   3  71  44]-0.01793
[  5   4 117  74]-0.01592 [  5   3 117  47]-0.01592 [  4   3  74  47]-0.01592
[  5   4 114  74]-0.01524 [  5   3 114  47]-0.01524 [  4   3  74  44]-0.01524
[  4   3  71  47]-0.01524 [  5   3 117  44]-0.01524 [  5   4 117  71]-0.01524
[  4   3  98  11]-0.01522 [  5   3 141  10] 0.01413 [  5   4 157  10] 0.01223
-----------------------------------------------------------------------------
   Norm of T2AA vector (    19803 symmetry allowed elements):  0.0989682931.
-----------------------------------------------------------------------------
   Largest T1 amplitudes for spin case BB:
   i       a                 i       a                 i       a    
-----------------------------------------------------------------------------
[  2       6    ] 0.02559 [  2       3    ]-0.02422 [  2      12    ]-0.00519
[  2      20    ]-0.00151 [  1      12    ] 0.00093 [  1      20    ]-0.00074
[  1       6    ]-0.00068 [  2      26    ] 0.00043 [  1      26    ] 0.00033
[  1       3    ] 0.00028 [  1      29    ]-0.00010 [  2      29    ]-0.00007
[  1      32    ] 0.00003 [  2      32    ] 0.00001 [  1      36    ]-0.00001
-----------------------------------------------------------------------------
   Norm of T1BB vector (       74 symmetry allowed elements):  0.0356781660.
-----------------------------------------------------------------------------
   Largest T2 amplitudes for spin case BB:
   i   j   a   b             i   j   a   b             i   j   a   b
-----------------------------------------------------------------------------
[  2   1  82  69]-0.00108 [  2   1  54  41]-0.00108 [  2   1 126 113]-0.00108
[  2   1  82  73]-0.00108 [  2   1 126 117]-0.00108 [  2   1  54  45]-0.00108
[  2   1  82  70]-0.00106 [  2   1  54  42]-0.00106 [  2   1 126 114]-0.00106
[  2   1 120 113] 0.00090 [  2   1  76  69] 0.00090 [  2   1  48  41] 0.00090
[  2   1 120 114] 0.00081 [  2   1  76  70] 0.00081 [  2   1  48  42] 0.00081
-----------------------------------------------------------------------------
   Norm of T2BB vector (     2205 symmetry allowed elements):  0.0052751689.
-----------------------------------------------------------------------------
   Largest T2 amplitudes for spin case AB:
       _       _                 _       _                 _       _
   i   j   a   b             i   j   a   b             i   j   a   b
-----------------------------------------------------------------------------
[  5   2  10 113]-0.02764 [  4   2  11  69] 0.02566 [  4   2 157 113]-0.02412
[  3   2 141 113]-0.02412 [  5   2 157  69]-0.02412 [  4   2  98  41]-0.02412
[  3   2  98  69]-0.02412 [  5   2 141  41]-0.02412 [  3   2  11  41]-0.02221
[  4   2  17  69] 0.01915 [  5   2  16 113] 0.01849 [  5   2 114   6] 0.01751
[  4   2  71   6] 0.01751 [  3   2  44   6] 0.01751 [  5   2  10 114]-0.01711
-----------------------------------------------------------------------------
   Norm of T2AB vector (    42710 symmetry allowed elements):  0.1767322246.
-----------------------------------------------------------------------------
       Summary of iterative solution of CC equations 
      -----------------------------------------------------------
                       Correlation           Total
       Iteration         Energy              Energy
      -----------------------------------------------------------
            0        -0.167353272135     -54.568209063015  DIIS 
            1        -0.180981783566     -54.581837574446  DIIS 
            2        -0.184086202811     -54.584941993690  DIIS 
            3        -0.185172747030     -54.586028537909  DIIS 
            4        -0.185353771936     -54.586209562816  DIIS 
            5        -0.185391002697     -54.586246793576  DIIS 
            6        -0.185393185065     -54.586248975944  DIIS 
            7        -0.185395519490     -54.586251310369  DIIS 
            8        -0.185396336887     -54.586252127766  DIIS 
            9        -0.185396331046     -54.586252121925  DIIS 
           10        -0.185396334126     -54.586252125006  DIIS 
           11        -0.185396347179     -54.586252138058  DIIS 
           12        -0.185396356246     -54.586252147125  DIIS 
           13        -0.185396359082     -54.586252149961  DIIS 
           14        -0.185396360163     -54.586252151043  DIIS 
           15        -0.185396360777     -54.586252151657  DIIS 
           16        -0.185396361005     -54.586252151884  DIIS 
           17        -0.185396361125     -54.586252152004  DIIS 
           18        -0.185396361172     -54.586252152052  DIIS 
      -----------------------------------------------------------
      A miracle has come to pass. The CC iterations have converged.
      The reference energy is       -54.40085579087930 a.u.
      The correlation energy is      -0.18539636117250 a.u.
      The total energy is           -54.58625215205180 a.u.
 @CHECKOUT-I, Total execution time (CPU/WALL):     2197.45/    1241.93 seconds.
--executable xvcc finished with status     0 in     1241.99 seconds (walltime).
  The final electronic energy is       -54.586252152051799 a.u. 
  This computation required                         1302.76 seconds (walltime).
