 --invoking executable--
/cvmfs/restricted.computecanada.ca/easybuild/software/2020/avx2/Compiler/intel2020/cfour/2.1/bin/xjoda


   *************************************************************************
         <<<     CCCCCC     CCCCCC   |||     CCCCCC     CCCCCC   >>>
       <<<      CCC        CCC       |||    CCC        CCC         >>>
      <<<      CCC        CCC        |||   CCC        CCC            >>>
    <<<        CCC        CCC        |||   CCC        CCC              >>>
      <<<      CCC        CCC        |||   CCC        CCC            >>>
       <<<      CCC        CCC       |||    CCC        CCC         >>>
         <<<     CCCCCC     CCCCCC   |||     CCCCCC     CCCCCC   >>>
   *************************************************************************

     ****************************************************************
     * CFOUR Coupled-Cluster techniques for Computational Chemistry *
     ****************************************************************
 

   Department of Chemistry                Institut fuer Physikalische Chemie
   University of Florida                  Universitaet Mainz
   Gainesville, FL 32611, USA             D-55099 Mainz, Germany

   Department of Chemistry                Fakultaet fuer Chemie und Biowiss.
   Johns Hopkins University               Karlsruher Institut fuer Technologie
   Baltimore, MD 21218, USA               D-76131 Karlsruhe, Germany

   Department of Chemistry                Department of Physical Chemistry
   Southern Methodist University          Eotvos Lorand University
   Dallas, TX 75275, USA                  H-1053 Budapest, Hungary

 
                       Version 2.1
 
                     gra355                                            
                     Sat 16 Mar 2024 12:29:22 AM EDT                   
                     integer*8 version is running
 
********************************************************************************
*                          Input from ZMAT file                                *
********************************************************************************
Test                                                                            
N                                                                               
                                                                                
*ACES2(CALC=CCSDT                                                               
FROZEN_CORE=ON                                                                  
#DROPMO=1                                                                       
#INPUT_MRCC=OFF                                                                 
#CC_PROG=MRCC                                                                   
XFORM_TOL=18                                                                    
SAVE_INTS=ON                                                                    
SCF_EXPORDER=6                                                                  
SCF_EXPSTART=5                                                                  
#SCF_DAMPING=1000                                                               
SCF_EXTRAPOLATION=ON                                                            
SCF_CONV=10                                                                     
SCF_MAXCYC=9999                                                                 
CC_CONV=10                                                                      
CC_MAXCYC=999                                                                   
T3_EXTRAPOL=ON                                                                  
REFERENCE=ROHF                                                                  
CHARGE=+0                                                                       
MULT=4                                                                          
ABCDTYPE=STANDARD                                                               
OCCUPATION=2-1-1-0-1-0-0-0/2-0-0-0-0-0-0-0                                      
MEM=20                                                                          
MEM_UNIT=GB                                                                     
BASIS=SPECIAL)                                                                  
                                                                                
N:aV6Z-EMSL                                                                     
                                                                                
********************************************************************************
  @GTFLGS-W, Keyword #DROPMO not known and is ignored.
  @GTFLGS-W, Keyword #INPUT_MRCC not known and is ignored.
  @GTFLGS-W, Keyword #CC_PROG not known and is ignored.
  @GTFLGS-W, Keyword #SCF_DAMPING not known and is ignored.
    -------------------------------------------------------------------
                    CFOUR Control Parameters 
    -------------------------------------------------------------------
        External           Internal           Value            Units
          Name               Name
    -------------------------------------------------------------------
       ABCDTYPE             IABCDT         STANDARD    [  0]    ***   
       ANHARMONIC           IANHAR         OFF         [  0]    ***   
       ANH_ALGORIT          IANALG         STANDARD    [  0]    ***   
       ANH_DERIVAT          IANDER         SECOND      [  1]    ***   
       ANH_MODE             ANHMOD         VIBRATION   [  0]    ***   
       ANH_STEPSIZ          ICUBST             50000          x 10-6  
       ANH_SYMMETR          IANHSM         ABELIAN     [  0]    ***   
       AO_LADDERS           IAOLAD         SINGLEPASS  [  1]    ***   
       AV_SCF               IAVSCF         OFF         [  0]    ***   
       BASIS                IBASIS         SPECIAL     [  0]    ***   
       BOTHVECTORS          BOTHVC         OFF         [  0]    ***   
       BOX_POTENT           IPIAB          OFF         [  0]    ***   
       BREIT                IBREIT         OFF         [  0]    ***   
       BRUCK_CONV           IBRTOL          10D-  4             ***   
       BRUECKNER            IBRKNR         OFF         [  0]    ***   
       BUFFERSIZE           IBUFFS              4096            ***   
       CACHE_RECS           ICHREC             10               ***   
       CALCLEVEL            ICLLVL         CCSDT       [ 18]    ***   
       CCORBOPT             ICCORB         OFF         [  0]  x 0.01  
       CC_CONV              ICCCNV          10D- 10             ***   
       CC_EXPORDER          ICCEOR              5               ***   
       CC_EXTRAPOL          ICCEXT         DIIS        [  1]    ***   
       CC_GUESS             ICCGES         MP2         [  0]    ***   
       CC_MAXCYC            ICCCYC            999              cycles 
       CC_PROGRAM           ICCPRO         VCC         [  0]    ***   
       CHARGE               ICHRGE              0               ***   
       CHOLESKY             ICHOLE         OFF         [  0]    ***   
       CIS_CONV             ICISTL              5               ***   
       COMM_SIZE            IPSIZE            ***               ***   
       CONSTANT             ICONST         OLD         [  1]    ***   
       CONTINUUM            ICONTU         NONE        [  0]    ***   
       CONTRACTION          ICNTYP         GENERAL     [  1]    ***   
       COORDINATES          ICOORD         INTERNAL    [  0]    ***   
       CPHF_CONVER          ICPHFT          10D- 16             ***   
       CPHF_MAXCYC          ICPHFC             64              cycles 
       CUBIC                ICUBIC         OFF         [  0]    ***   
       CURVILINEAR          ICURVY         OFF         [  0]    ***   
       DBOC                 IDBOC          OFF         [  0]    ***   
       DCT                  IDCT           OFF         [  0]    ***   
       DERIV_LEV            IDRLVL         ZERO        [  0]    ***   
       DEVMEM_SIZE          IDVMEM         *********           MByte  
       DIAG_MRCC            IEOMST          10D-  0             ***   
       DIFF_TYPE            IDIFTY         RELAXED     [  0]    ***   
       DIRECT               IDIRCT         OFF         [  0]    ***   
       DROPMO               IDRPMO      NONE         
       ECP                  IECP           OFF         [  0]    ***   
       EIGENVECTOR          IVEC                1               ***   
       EL_ANHARM            IELANH         OFF         [  0]    ***   
       EOMFOLLOW            IEOMSR         ENERGY      [  0]    ***   
       EOMIP                IEOMIP         OFF         [  0]    ***   
       EOMLEVEL             HBARFM         SAME        [  0]    ***   
       EOM_MRCC             IMRCCE         NEW         [  1]    ***   
       EOM_NONIT            EOMNON         OFF         [  0]    ***   
       EOM_NSING            IEOMSI          10D-  0             ***   
       EOM_NSTATES          IMRCCD         DAVIDSON    [  0]    ***   
       EOM_NTRIP            IEOMTR          10D-  0             ***   
       EOM_ORDER            IEXORD         ENERGY      [  0]    ***   
       EOM_PROPSTA          IEOMST              0               ***   
       ESTATE_CONV          IEXTOL          10D-  5             ***   
       ESTATE_DIAG          IEXDIG         ITERATIVE   [  0]    ***   
       ESTATE_LOCK          IESLOC         ON          [  1]    ***   
       ESTATE_MAXC          IEXMXC             40               ***   
       ESTATE_PROP          IEXPRP         OFF         [  0]    ***   
       EVAL_HESS            IRECAL              0            # of cyc.
       EXCITATION           IEXCIT              0               ***   
       EXCITE               IEXCIT         NONE        [  0]    ***   
       EXTERN_POT           IEXPOT         OFF         [  0]    ***   
       FCGRADNEW            IFCGNW         OFF         [  0]    ***   
       FC_FIELD             IFINFC              0             x 10-6  
       FD_CALTYPE           IFDCAL         GRADONLY    [  0]    ***   
       FD_PROJECT           IFDPRJ         OFF         [  1]    ***   
       FD_STEPSIZE          IDISFD              0            10-4 bohr
       FD_USEGROUP          IFDGRP         FULL        [  0]    ***   
       FILE_RECSIZ          IFLREC              4096           words  
       FINITE_PERT          IFIPER              0             x 10-6  
       FIXGEOM              IFIXGM         OFF         [  0]    ***   
       FOCK                 IFOCK          AO          [  1]    ***   
       FREQ_ALGORI          IVIALG         STANDARD    [  0]    ***   
       FROZEN_CORE          IFROCO         ON          [  1]    ***   
       GAMMA_ABCD           IGABCD         STORE       [  0]    ***   
       GAMMA_ABCI           IGABCI         STORE       [  0]    ***   
       GENBAS_1             IGNBS1              0               ***   
       GENBAS_2             IGNBS2              0               ***   
       GENBAS_3             IGNBS3              0               ***   
       GENBAS_4             IGNBS4              0               ***   
       GEO_CONV             ICONTL              5              H/bohr 
       GEO_MAXCYC           IOPTCY             50               ***   
       GEO_MAXSTEP          IMXSTP            300            millibohr
       GEO_METHOD           INR            SINGLE_POINT[  5]    ***   
       GIAO                 IGIAO          OFF         [  1]    ***   
       GIMIC                IGIMIC         OFF         [  0]    ***   
       GRID                 IGRID          OFF         [  0]    ***   
       GRID_ALGO            IGALGO         SERIAL      [  0]    ***   
       GUESS                IGUESS         MOREAD      [  0]    ***   
       HBAR                 IHBAR          OFF         [  0]    ***   
       HESS_TYPE            IHESTP         SCF         [  0]    ***   
       HF2_FILE             IHF2Fl         USE         [  1]    ***   
       HFSTABILITY          ISTABL         OFF         [  0]    ***   
       INCORE               INCORE         OFF         [  0]    ***   
       INPUT_MRCC           IMRCC          ON          [  1]    ***   
       INTEGRALS            INTTYP         VMOL        [  1]    ***   
       JODA_PRINT           IJPRNT              0               ***   
       KEYWORD_OUT          IDMPKW         NO          [  0]    ***   
       LINDEP_TOL           ILINDP              8               ***   
       LINEQ_CONV           IZTACN          10D-  7           cycles  
       LINEQ_EXPOR          ILMAXD              5               ***   
       LINEQ_MAXCY          ILMAXC            100               ***   
       LINEQ_TYPE           ILTYPE         DIIS        [  1]    ***   
       LOCK_ORBOCC          ILOCOC         OFF         [  0]    ***   
       MEMORY_SIZE          IMEMSZ         *********           words  
       MEM_UNIT             IMEMU          GB          [  3]    ***   
       MRCC                 IMRCCC         OFF         [  0]    ***   
       MULTIPLICTY          IMULTP              4               ***   
       NACOUPLING           IVCOUP         OFF         [  0]    ***   
       NEGEVAL              IDIE           ABORT       [  0]    ***   
       NEWNORM              INEWNO         OFF         [  0]    ***   
       NON-HF               INONHF         ON          [  1]    ***   
       NTOP_TAMP            ITOPT2             15               ***   
       NUC_MODEL            INUCMO         POINT       [  0]    ***   
       OCCUPATION           IOCCU  A   2,  1,  1,  0,  1,  0,  0,  0,
                                   B   2,  0,  0,  0,  0,  0,  0,  0,
       OPEN-SHELL           IOPEN          SPIN-ORBITAL[  0]    ***   
       OPTVIB               IOPTVB         OFF         [  0]    ***   
       ORBITALS             IORBTP         SEMICANONICA[  1]    ***   
       PARALLEL             IPARAL         ON          [  1]    ***   
       PARA_INT             IPINTS         ON          [  1]    ***   
       PARA_PRINT           IPPRIN              0               ***   
       PERT_ORB             IPTORB         STANDARD    [  0]    ***   
       POINTS               IGRDFD              0               ***   
       PRINT                IPRNT               0               ***   
       PROPS                IPROPS         OFF         [  0]    ***   
       PROP_INTEGR          IINTYP         INTERNAL    [  0]    ***   
       PSI                  IPSI           OFF         [  0]    ***   
       QC_ALG               IQCALG         FLM         [  0]    ***   
       QC_LINALG            IQCLIN         TRIDIAG     [  2]    ***   
       QC_MAXCYC            IQCMAX          10D-100           cycles  
       QC_MAXSCFCY          IQCMSC          10D- 15           cycles  
       QC_RTRUST            IQCRTR          10D-  0           x 10-3  
       QC_SKIPSCF           IQCSKI         OFF         [  0]    ***   
       QC_START             IQCSTA          10D-  1             ***   
       QRHFGUESS            IQGUES         OFF         [  0]    ***   
       QUARTIC              IQUART         OFF         [  0]    ***   
       RAMAN_INT            IRAMIN         OFF         [  0]    ***   
       RAMAN_ORB            IRAMRE         UNRELAXED   [  0]    ***   
       RDO                  IRDOFM         OFF         [  0]    ***   
       REDUCE_REPR          REDREP         Ir          [  0]    ***   
       REFERENCE            IREFNC         ROHF        [  2]    ***   
       RELATIVIST           IRELAT         OFF         [  0]    ***   
       RELAX_DENS           IRDENS         OFF         [  0]    ***   
       RESET_FLAGS          IRESET         OFF         [  0]    ***   
       RESTART_CC           ICCRES         OFF         [  0]    ***   
       ROT_EVEC             ROTVEC              0               ***   
       SAVE_INTS            ISVINT         ON          [  1]    ***   
       SCALE_ON             ISTCRT              0               ***   
       SCF_CONV             ISCFCV          10D- 10             ***   
       SCF_DAMPING          IDAMP               0             x 10-3  
       SCF_EXPORDE          IRPPOR              6               ***   
       SCF_EXPSTAR          IRPPLS              5               ***   
       SCF_EXTRAPO          IRPP           ON          [  1]    ***   
       SCF_MAXCYC           ISCFCY            ***              cycles 
       SCF_NOSTOP           ISCFST         OFF         [  0]    ***   
       SCF_PRINT            ISCFPR              0               ***   
       SCF_PROG             ISCFPR         SCF         [  0]    ***   
       SD_FIELD             IFINSD              0             x 10-6  
       SOPERT               IPERSO         OFF         [  0]    ***   
       SPHERICAL            IDFGHI         ON          [  1]    ***   
       SPINORBIT            ISOCAL         OFF         [  0]    ***   
       SPINROTATIO          ISRCON         OFF         [  0]    ***   
       SPIN_FLIP            ISPFLP         OFF         [  0]    ***   
       SPIN_ORBIT           ISPORB         OFF         [  0]    ***   
       SPIN_SCAL            ISCSMP         OFF         [  0]    ***   
       STEEPSCALE           ISTPSC              1000          x 10-3  
       SUBGROUP             ISUBGP         DEFAULT     [  0]    ***   
       SUBGRPAXIS           ISBXYZ         X           [  0]    ***   
       SYMMETRY             ISYM           ON          [  0]    ***   
       SYM_CHECK            ISYMCK         OVERRIDE    [  1]    ***   
       T3_EXTRAPOL          IT3EXT         ON          [  1]    ***   
       T4_EXTRAPOL          IT4EXP         OFF         [  0]    ***   
       TAMP_SUM             IEVERY              5               ***   
       TESTSUITE            ITESTS         OFF         [  0]    ***   
       THERMOCH             ITHERM         OFF         [  0]    ***   
       TOL_CHOLESK          ITOLCH          10D-  4             ***   
       TRANGRAD             IRESRM         OFF         [  0]    ***   
       TRANS_INV            ITRAIN         USE         [  0]    ***   
       TREAT_PERT           ITREAT         SIMULTANEOUS[  0]    ***   
       TRIP_ALGORI          ITRALG         NORMAL      [  0]    ***   
       UIJ_THRESHO          IUIJTH              1               ***   
       UNITS                IUNITS         ANGSTROM    [  0]    ***   
       UNOS                 IUNOS          OFF         [  0]    ***   
       UPDATE_HESS          IHUPDT         ON          [  1]    ***   
       VIBPHASE             ISETPH         STANDARD    [  0]    ***   
       VIBRATION            IVIB           NO          [  0]    ***   
       VIB_ALGORIT          IGEALG         STANDARD    [  0]    ***   
       VNATORB              IVNORB         OFF         [  0]    ***   
       VTRAN                IVTRAN         FULL/PARTIAL[  0]    ***   
       XFIELD               IXEFLD              0             x 10-6  
       XFORM_TOL            IXFTOL          10D- 18             ***   
       YFIELD               IYEFLD              0             x 10-6  
       ZFIELD               IZEFLD              0             x 10-6  
       ZSCALE_EXP           IZEXPS         OFF         [  0]    ***   
    -------------------------------------------------------------------
   1 entries found in Z-matrix 
   Job Title : Test                                                                            
   Rotational constants (in cm-1): 

   Rotational constants (in MHz): 

********************************************************************************
   The full molecular point group is I h .
   The largest Abelian subgroup of the full molecular point group is D2h .
   The computational point group is D2h .
********************************************************************************
  ECPDATA file not present.   Using default ECPDATA. 
  @GTFLGS-W, Keyword #DROPMO not known and is ignored.
  @GTFLGS-W, Keyword #INPUT_MRCC not known and is ignored.
  @GTFLGS-W, Keyword #CC_PROG not known and is ignored.
  @GTFLGS-W, Keyword #SCF_DAMPING not known and is ignored.
  There is   1 frozen-core orbital.
  There is   1 frozen-core orbital.
  There are  189 basis functions.
 @GEOPT-W, Archive file not created for single-point calculation.
 @CHECKOUT-I, Total execution time (CPU/WALL):        0.21/       0.31 seconds.
--executable xjoda finished with status     0 in        0.41 seconds (walltime).
 --invoking executable--
/cvmfs/restricted.computecanada.ca/easybuild/software/2020/avx2/Compiler/intel2020/cfour/2.1/bin/xvmol
 SERIAL VERSION OF MOLECULE STARTED
********************************************************************************
                    INPUT FROM MOL FILE
********************************************************************************
INTGRL        1    0    1    0    0    0    0    0    0                         
         *** CFOUR Program System (Release V0.1) ***                            
Test                                                                            
    1    3 X  Y   Z   0.10E-08              0    0                              
   9999.00      3.00                                                            
          7.00000000    1    7    1    1    1    1    1    1    1               
N #1   0.000000000000000   0.000000000000000   0.000000000000000                
   17    8                                                                      
   432300.000000000       5.500000000000000E-006 -1.200000000000000E-006        
  0.000000000000000E+000  0.000000000000000E+000  0.000000000000000E+000        
  0.000000000000000E+000  0.000000000000000E+000  0.000000000000000E+000        
   64700.0000000000       4.350000000000000E-005 -9.500000000000001E-006        
  0.000000000000000E+000  0.000000000000000E+000  0.000000000000000E+000        
  0.000000000000000E+000  0.000000000000000E+000  0.000000000000000E+000        
   14720.0000000000       2.289000000000000E-004 -5.050000000000000E-005        
  0.000000000000000E+000  0.000000000000000E+000  0.000000000000000E+000        
  0.000000000000000E+000  0.000000000000000E+000  0.000000000000000E+000        
   4170.00000000000       9.650000000000000E-004 -2.126000000000000E-004        
  0.000000000000000E+000  0.000000000000000E+000  0.000000000000000E+000        
  0.000000000000000E+000  0.000000000000000E+000  0.000000000000000E+000        
   1361.00000000000       3.502100000000000E-003 -7.753000000000000E-004        
  0.000000000000000E+000  0.000000000000000E+000  0.000000000000000E+000        
  0.000000000000000E+000  0.000000000000000E+000  0.000000000000000E+000        
   491.200000000000       1.129210000000000E-002 -2.506200000000000E-003        
  0.000000000000000E+000  0.000000000000000E+000  0.000000000000000E+000        
  0.000000000000000E+000  0.000000000000000E+000  0.000000000000000E+000        
   191.600000000000       3.261280000000000E-002 -7.365200000000000E-003        
  0.000000000000000E+000  0.000000000000000E+000  0.000000000000000E+000        
  0.000000000000000E+000  0.000000000000000E+000  0.000000000000000E+000        
   79.4100000000000       8.329720000000000E-002 -1.930160000000000E-002        
  0.000000000000000E+000  0.000000000000000E+000  0.000000000000000E+000        
  0.000000000000000E+000  0.000000000000000E+000  0.000000000000000E+000        
   34.5300000000000       0.179985600000000      -4.471730000000000E-002        
  0.000000000000000E+000  0.000000000000000E+000  0.000000000000000E+000        
  0.000000000000000E+000  0.000000000000000E+000  0.000000000000000E+000        
   15.5800000000000       0.305003500000000      -8.606640000000000E-002        
  0.000000000000000E+000  0.000000000000000E+000  0.000000000000000E+000        
  0.000000000000000E+000  0.000000000000000E+000  0.000000000000000E+000        
   7.23200000000000       0.341159300000000      -0.133296200000000             
  0.000000000000000E+000  0.000000000000000E+000  0.000000000000000E+000        
  0.000000000000000E+000  0.000000000000000E+000  0.000000000000000E+000        
   3.38200000000000       0.177482600000000      -0.105965400000000             
   1.00000000000000       0.000000000000000E+000  0.000000000000000E+000        
  0.000000000000000E+000  0.000000000000000E+000  0.000000000000000E+000        
   1.36900000000000       1.988400000000000E-002  0.134667300000000             
  0.000000000000000E+000   1.00000000000000       0.000000000000000E+000        
  0.000000000000000E+000  0.000000000000000E+000  0.000000000000000E+000        
  0.624800000000000      -1.246600000000000E-003  0.433940000000000             
  0.000000000000000E+000  0.000000000000000E+000   1.00000000000000             
  0.000000000000000E+000  0.000000000000000E+000  0.000000000000000E+000        
  0.274700000000000       1.040100000000000E-003  0.452949000000000             
  0.000000000000000E+000  0.000000000000000E+000  0.000000000000000E+000        
   1.00000000000000       0.000000000000000E+000  0.000000000000000E+000        
  0.119200000000000      -1.265000000000000E-004  0.134021600000000             
  0.000000000000000E+000  0.000000000000000E+000  0.000000000000000E+000        
  0.000000000000000E+000   1.00000000000000       0.000000000000000E+000        
  4.714000000000000E-002  0.000000000000000E+000  0.000000000000000E+000        
  0.000000000000000E+000  0.000000000000000E+000  0.000000000000000E+000        
  0.000000000000000E+000  0.000000000000000E+000   1.00000000000000             
   11    7                                                                      
   415.900000000000       1.484000000000000E-004  0.000000000000000E+000        
  0.000000000000000E+000  0.000000000000000E+000  0.000000000000000E+000        
  0.000000000000000E+000  0.000000000000000E+000                                
   98.6100000000000       1.276300000000000E-003  0.000000000000000E+000        
  0.000000000000000E+000  0.000000000000000E+000  0.000000000000000E+000        
  0.000000000000000E+000  0.000000000000000E+000                                
   31.9200000000000       6.702400000000000E-003  0.000000000000000E+000        
  0.000000000000000E+000  0.000000000000000E+000  0.000000000000000E+000        
  0.000000000000000E+000  0.000000000000000E+000                                
   12.0000000000000       2.526170000000000E-002  0.000000000000000E+000        
  0.000000000000000E+000  0.000000000000000E+000  0.000000000000000E+000        
  0.000000000000000E+000  0.000000000000000E+000                                
   4.91900000000000       7.518940000000000E-002  0.000000000000000E+000        
  0.000000000000000E+000  0.000000000000000E+000  0.000000000000000E+000        
  0.000000000000000E+000  0.000000000000000E+000                                
   2.14800000000000       0.174015000000000        1.00000000000000             
  0.000000000000000E+000  0.000000000000000E+000  0.000000000000000E+000        
  0.000000000000000E+000  0.000000000000000E+000                                
  0.969600000000000       0.292792000000000       0.000000000000000E+000        
   1.00000000000000       0.000000000000000E+000  0.000000000000000E+000        
  0.000000000000000E+000  0.000000000000000E+000                                
  0.439900000000000       0.348264700000000       0.000000000000000E+000        
  0.000000000000000E+000   1.00000000000000       0.000000000000000E+000        
  0.000000000000000E+000  0.000000000000000E+000                                
  0.197800000000000       0.255936500000000       0.000000000000000E+000        
  0.000000000000000E+000  0.000000000000000E+000   1.00000000000000             
  0.000000000000000E+000  0.000000000000000E+000                                
  8.603000000000000E-002  6.947920000000000E-002  0.000000000000000E+000        
  0.000000000000000E+000  0.000000000000000E+000  0.000000000000000E+000        
   1.00000000000000       0.000000000000000E+000                                
  3.150000000000000E-002  0.000000000000000E+000  0.000000000000000E+000        
  0.000000000000000E+000  0.000000000000000E+000  0.000000000000000E+000        
  0.000000000000000E+000   1.00000000000000                                     
    6    6                                                                      
   6.71700000000000        1.00000000000000       0.000000000000000E+000        
  0.000000000000000E+000  0.000000000000000E+000  0.000000000000000E+000        
  0.000000000000000E+000                                                        
   2.89600000000000       0.000000000000000E+000   1.00000000000000             
  0.000000000000000E+000  0.000000000000000E+000  0.000000000000000E+000        
  0.000000000000000E+000                                                        
   1.24900000000000       0.000000000000000E+000  0.000000000000000E+000        
   1.00000000000000       0.000000000000000E+000  0.000000000000000E+000        
  0.000000000000000E+000                                                        
  0.538000000000000       0.000000000000000E+000  0.000000000000000E+000        
  0.000000000000000E+000   1.00000000000000       0.000000000000000E+000        
  0.000000000000000E+000                                                        
  0.232000000000000       0.000000000000000E+000  0.000000000000000E+000        
  0.000000000000000E+000  0.000000000000000E+000   1.00000000000000             
  0.000000000000000E+000                                                        
  8.740000000000001E-002  0.000000000000000E+000  0.000000000000000E+000        
  0.000000000000000E+000  0.000000000000000E+000  0.000000000000000E+000        
   1.00000000000000                                                             
    5    5                                                                      
   3.82900000000000        1.00000000000000       0.000000000000000E+000        
  0.000000000000000E+000  0.000000000000000E+000  0.000000000000000E+000        
   1.79500000000000       0.000000000000000E+000   1.00000000000000             
  0.000000000000000E+000  0.000000000000000E+000  0.000000000000000E+000        
  0.841000000000000       0.000000000000000E+000  0.000000000000000E+000        
   1.00000000000000       0.000000000000000E+000  0.000000000000000E+000        
  0.394000000000000       0.000000000000000E+000  0.000000000000000E+000        
  0.000000000000000E+000   1.00000000000000       0.000000000000000E+000        
  0.151000000000000       0.000000000000000E+000  0.000000000000000E+000        
  0.000000000000000E+000  0.000000000000000E+000   1.00000000000000             
    4    4                                                                      
   3.85600000000000        1.00000000000000       0.000000000000000E+000        
  0.000000000000000E+000  0.000000000000000E+000                                
   1.70200000000000       0.000000000000000E+000   1.00000000000000             
  0.000000000000000E+000  0.000000000000000E+000                                
  0.751000000000000       0.000000000000000E+000  0.000000000000000E+000        
   1.00000000000000       0.000000000000000E+000                                
  0.326000000000000       0.000000000000000E+000  0.000000000000000E+000        
  0.000000000000000E+000   1.00000000000000                                     
    3    3                                                                      
   2.87500000000000        1.00000000000000       0.000000000000000E+000        
  0.000000000000000E+000                                                        
   1.17000000000000       0.000000000000000E+000   1.00000000000000             
  0.000000000000000E+000                                                        
  0.587000000000000       0.000000000000000E+000  0.000000000000000E+000        
   1.00000000000000                                                             
    2    2                                                                      
   2.09900000000000        1.00000000000000       0.000000000000000E+000        
   1.04100000000000       0.000000000000000E+000   1.00000000000000             
FINISH                                                                          
 
********************************************************************************
 ONE- AND TWO-ELECTRON INTEGRALS OVER SYMMETRY-ADAPTED AOS ARE CALCULATED.

  SPHERICAL HARMONICS ARE USED.
  
  INTEGRALS LESS THAN  0.10E-13 ARE NEGLECTED.

  NUCLEAR REPULSION ENERGY :    0.0000000000 A.U.
  @MOLECU-I, ONE ELECTRON INTEGRALS (CPU/WALL):        0.09/       0.09 SECONDS.
  @TWOEL-I,     480616 INTEGRALS OF SYMMETRY TYPE  I I I I
  @TWOEL-I,    4112139 INTEGRALS OF SYMMETRY TYPE  I J I J
  @TWOEL-I,    2362312 INTEGRALS OF SYMMETRY TYPE  I I J J
  @TWOEL-I,   10108732 INTEGRALS OF SYMMETRY TYPE  I J K L
  @TWOEL-I, TOTAL NUMBER OF 2-E INTEGRALS   17063799.
  @MOLECU-I, TWO ELECTRON INTEGRALS (CPU/WALL):       64.63/      64.64 SECONDS.
 @CHECKOUT-I, Total execution time (CPU/WALL):       64.74/      64.76 seconds.

OMP_NUM_THREADS not specified; defaulting to 1
Running with 1 threads/proc

--executable xvmol finished with status     0 in       64.79 seconds (walltime).
 --invoking executable--
/cvmfs/restricted.computecanada.ca/easybuild/software/2020/avx2/Compiler/intel2020/cfour/2.1/bin/xvmol2ja
 @GETMEM-I,  Allocated   19073 MB of main memory.
 @CHECKOUT-I, Total execution time (CPU/WALL):        0.22/       0.18 seconds.
--executable xvmol2ja finished with status     0 in        0.22 seconds (walltime).
 --invoking executable--
/cvmfs/restricted.computecanada.ca/easybuild/software/2020/avx2/Compiler/intel2020/cfour/2.1/bin/xvscf
  There are  189 functions in the AO basis.

  There are 8 irreducible representations.

       Irrep        # of functions
         1                 40
         2                 26
         3                 26
         4                 20
         5                 26
         6                 20
         7                 20
         8                 11


  Parameters for SCF calculation: 
        SCF reference function: ROHF  
  Maximum number of iterations: 9999
     Full symmetry point group: I h 
     Computational point group: D2h 
        Initial density matrix: MOREAD                 
     SCF convergence tolerance: 10**(-10)
  DIIS convergence acceleration:  ON
          Latest start for DIIS:   5
                     DIIS order:   6

     Alpha population by irrep:   2    1    1    0    1    0    0    0
      Beta population by irrep:   2    0    0    0    0    0    0    0


  Memory information:    2725225 words required.
  Fock matrices are constructed from AO integral file.
 @GETMEM-I,  Allocated      20 MB of main memory.
  Initialization and symmetry analysis required      0.004 seconds.

 total no. of electrons in initial guess :  0.000000000000000E+000
 total no. of electrons in initial guess :  0.000000000000000E+000
  --------------------------------------------------------------------
  Iteration         Total Energy            Largest Density Difference
  --------------------------------------------------------------------
       0             0.000000000000000              0.0000000000D+00
   current occupation vector 
     2  1  1  0  1  0  0  0
     2  0  0  0  0  0  0  0
       1           -49.156927568753296              0.1074440621D+02
   current occupation vector 
     2  1  1  0  1  0  0  0
     2  0  0  0  0  0  0  0
       2           -51.182950488778097              0.1074279203D+02
   current occupation vector 
     2  1  1  0  1  0  0  0
     2  0  0  0  0  0  0  0
       3           -53.904482250755756              0.2064518217D+01
   current occupation vector 
     2  1  1  0  1  0  0  0
     2  0  0  0  0  0  0  0
       4           -51.993974048599497              0.2028673609D+01
   current occupation vector 
     2  1  1  0  1  0  0  0
     2  0  0  0  0  0  0  0
       5           -54.037551853312728              0.1747252808D+01
   current occupation vector 
     2  1  1  0  1  0  0  0
     2  0  0  0  0  0  0  0
       6           -54.349512441208795              0.6148428546D+00
   current occupation vector 
     2  1  1  0  1  0  0  0
     2  0  0  0  0  0  0  0
       7           -54.396870066956183              0.1923477762D+00
   current occupation vector 
     2  1  1  0  1  0  0  0
     2  0  0  0  0  0  0  0
       8           -54.395374320261695              0.1511443069D+00
   current occupation vector 
     2  1  1  0  1  0  0  0
     2  0  0  0  0  0  0  0
       9           -54.400861672075600              0.9309705589D-01
   current occupation vector 
     2  1  1  0  1  0  0  0
     2  0  0  0  0  0  0  0
      10           -54.400920066328673              0.7506064504D-02
   current occupation vector 
     2  1  1  0  1  0  0  0
     2  0  0  0  0  0  0  0
      11           -54.400923645888568              0.1577357271D-02
   current occupation vector 
     2  1  1  0  1  0  0  0
     2  0  0  0  0  0  0  0
      12           -54.400923647135471              0.5899370666D-04
   current occupation vector 
     2  1  1  0  1  0  0  0
     2  0  0  0  0  0  0  0
      13           -54.400923647147231              0.5306269946D-05
   current occupation vector 
     2  1  1  0  1  0  0  0
     2  0  0  0  0  0  0  0
      14           -54.400923647147522              0.6628526054D-06
   current occupation vector 
     2  1  1  0  1  0  0  0
     2  0  0  0  0  0  0  0
      15           -54.400923647147366              0.8810556591D-07
   current occupation vector 
     2  1  1  0  1  0  0  0
     2  0  0  0  0  0  0  0
      16           -54.400923647147465              0.3891094243D-08
   current occupation vector 
     2  1  1  0  1  0  0  0
     2  0  0  0  0  0  0  0
      17           -54.400923647147472              0.2576464597D-09
   current occupation vector 
     2  1  1  0  1  0  0  0
     2  0  0  0  0  0  0  0

  SCF has converged.

 Density matrix saved to file den.dat
 total alpha spin electron number:   5.00000000000001     
 total  beta spin electron number:   2.00000000000001     
     E(ROHF)=       -54.400923647147501              0.1495717666D-10

  Eigenvector printing suppressed.


       The average multiplicity is    4.0000000
  The expectation value of S**2 is    3.7500000

 @PUTMOS-I, Writing converged MOs to NEWMOS. 
 @PUTMOS-I, Symmetry   1 Full Blocks 10 Partial Blocksize   0
 @PUTMOS-I, Symmetry   2 Full Blocks  6 Partial Blocksize   2
 @PUTMOS-I, Symmetry   3 Full Blocks  6 Partial Blocksize   2
 @PUTMOS-I, Symmetry   4 Full Blocks  5 Partial Blocksize   0
 @PUTMOS-I, Symmetry   5 Full Blocks  6 Partial Blocksize   2
 @PUTMOS-I, Symmetry   6 Full Blocks  5 Partial Blocksize   0
 @PUTMOS-I, Symmetry   7 Full Blocks  5 Partial Blocksize   0
 @PUTMOS-I, Symmetry   8 Full Blocks  2 Partial Blocksize   3
 @PUTFOCK-I, Writing converged Fock matrix to NEWFOCK. 
 @PUTFOCK-I, Symmetry   1 Full Blocks 10 Partial Blocksize   0
 @PUTFOCK-I, Symmetry   2 Full Blocks  6 Partial Blocksize   2
 @PUTFOCK-I, Symmetry   3 Full Blocks  6 Partial Blocksize   2
 @PUTFOCK-I, Symmetry   4 Full Blocks  5 Partial Blocksize   0
 @PUTFOCK-I, Symmetry   5 Full Blocks  6 Partial Blocksize   2
 @PUTFOCK-I, Symmetry   6 Full Blocks  5 Partial Blocksize   0
 @PUTFOCK-I, Symmetry   7 Full Blocks  5 Partial Blocksize   0
 @PUTFOCK-I, Symmetry   8 Full Blocks  2 Partial Blocksize   3
  @DMPJOB-I, Rotating orbitals to semicanonical basis.
             *** Eigenvalues correspond to new basis. ***

  @PRJDEN-I, Basis set contains h and/or higher angular momentum functions.
             Analysis of density matrix symmetry not available.
             Check irreps of the molecular orbitals in the full point group
             for presence of an asymmetric solution.

 
  ORBITAL EIGENVALUES (ALPHA)  (1H = 27.2113834 eV)

       MO #        E(hartree)               E(eV)           FULLSYM    COMPSYM
       ----   --------------------   --------------------   -------   ---------
    1     1         -15.6725590551        -426.4720133081      Ag        Ag (1)
    2     2          -1.1510336970         -31.3212192345      Ag        Ag (1)
    3   113          -0.5675890201         -15.4448824405     T1u       B1u (5)
    4    41          -0.5675890201         -15.4448824405     T1u       B2u (2)
    5    67          -0.5675890201         -15.4448824405     T1u       B3u (3)
  +++++++++++++++++++++++++++++++++++++++++++++++++++++++++++++++++++++++++++++
    6    68           0.0724883839           1.9725092055     T1u       B3u (3)
    7   114           0.0724883839           1.9725092055     T1u       B1u (5)
    8    42           0.0724883839           1.9725092055     T1u       B2u (2)
    9     3           0.0810189227           2.2046369672      Ag        Ag (1)
   10    93           0.2639989805           7.1837774742      Hg       B1g (4)
   11     4           0.2639989805           7.1837774742      Hg        Ag (1)
   12     5           0.2639989805           7.1837774742      Hg        Ag (1)
   13   159           0.2639989805           7.1837774742      Hg       B2g (7)
   14   139           0.2639989805           7.1837774742      Hg       B3g (6)
   15    69           0.3070769968           8.3559898919     T1u       B3u (3)
   16   115           0.3070769968           8.3559898919     T1u       B1u (5)
   17    43           0.3070769968           8.3559898919     T1u       B2u (2)
   18     6           0.4440487593          12.0831810387      Ag        Ag (1)
   19    44           0.6153654011          16.7449438594       u       B2u (2)
   20   179           0.6153654011          16.7449438594       u        Au (8)
   21    45           0.6153654011          16.7449438594       u       B2u (2)
   22   116           0.6153654011          16.7449438594       u       B1u (5)
   23   117           0.6153654011          16.7449438594       u       B1u (5)
   24    70           0.6153654011          16.7449438594       u       B3u (3)
   25    71           0.6153654011          16.7449438594       u       B3u (3)
   26    94           0.8019187997          21.8213199147      Hg       B1g (4)
   27     7           0.8019187997          21.8213199147      Hg        Ag (1)
   28   160           0.8019187997          21.8213199147      Hg       B2g (7)
   29     8           0.8019187997          21.8213199147      Hg        Ag (1)
   30   140           0.8019187997          21.8213199147      Hg       B3g (6)
   31    72           0.9379706714          25.5234795581     T1u       B3u (3)
   32   118           0.9379706714          25.5234795581     T1u       B1u (5)
   33    46           0.9379706714          25.5234795581     T1u       B2u (2)
   34     9           1.5636848541          42.5500280822      Ag        Ag (1)
   35    95           1.6288978139          44.3245629342       g       B1g (4)
   36   141           1.6288978139          44.3245629342       g       B3g (6)
   37    96           1.6288978139          44.3245629342       g       B1g (4)
   38    10           1.6288978139          44.3245629342       g        Ag (1)
   39   142           1.6288978139          44.3245629342       g       B3g (6)
   40   161           1.6288978139          44.3245629342       g       B2g (7)
   41    11           1.6288978139          44.3245629342       g        Ag (1)
   42    12           1.6288978139          44.3245629342       g        Ag (1)
   43   162           1.6288978139          44.3245629342       g       B2g (7)
   44   180           1.7968679792          48.8952635002       u        Au (8)
   45    47           1.7968679792          48.8952635002       u       B2u (2)
   46   119           1.7968679792          48.8952635002       u       B1u (5)
   47    73           1.7968679792          48.8952635002       u       B3u (3)
   48   120           1.7968679792          48.8952635002       u       B1u (5)
   49    48           1.7968679792          48.8952635002       u       B2u (2)
   50    74           1.7968679792          48.8952635002       u       B3u (3)
   51    13           1.9886489665          54.1138894765      Hg        Ag (1)
   52    14           1.9886489665          54.1138894765      Hg        Ag (1)
   53    97           1.9886489665          54.1138894765      Hg       B1g (4)
   54   163           1.9886489665          54.1138894765      Hg       B2g (7)
   55   143           1.9886489665          54.1138894765      Hg       B3g (6)
   56    49           2.4804614547          67.4967876522     T1u       B2u (2)
   57    75           2.4804614547          67.4967876522     T1u       B3u (3)
   58   121           2.4804614547          67.4967876522     T1u       B1u (5)
   59    50           3.4446132504          93.7326918204               B2u (2)
   60   122           3.4446132504          93.7326918204               B1u (5)
   61    76           3.4446132504          93.7326918204               B3u (3)
   62   123           3.4446132504          93.7326918204               B1u (5)
   63    51           3.4446132504          93.7326918204               B2u (2)
   64   181           3.4446132504          93.7326918204                Au (8)
   65    77           3.4446132504          93.7326918204               B3u (3)
   66    52           3.4446132504          93.7326918204               B2u (2)
   67   182           3.4446132504          93.7326918204                Au (8)
   68   124           3.4446132504          93.7326918204               B1u (5)
   69    78           3.4446132504          93.7326918204               B3u (3)
   70   125           4.2143925043         114.6794502325       u       B1u (5)
   71    53           4.2143925043         114.6794502325       u       B2u (2)
   72   126           4.2143925043         114.6794502325       u       B1u (5)
   73   183           4.2143925043         114.6794502325       u        Au (8)
   74    79           4.2143925043         114.6794502325       u       B3u (3)
   75    54           4.2143925043         114.6794502325       u       B2u (2)
   76    80           4.2143925043         114.6794502325       u       B3u (3)
   77    98           4.3394426118         118.0822366531       g       B1g (4)
   78    15           4.3394426118         118.0822366531       g        Ag (1)
   79   144           4.3394426118         118.0822366531       g       B3g (6)
   80   164           4.3394426118         118.0822366531       g       B2g (7)
   81    16           4.3394426118         118.0822366531       g        Ag (1)
   82   145           4.3394426118         118.0822366531       g       B3g (6)
   83   165           4.3394426118         118.0822366531       g       B2g (7)
   84    17           4.3394426118         118.0822366531       g        Ag (1)
   85    99           4.3394426118         118.0822366531       g       B1g (4)
   86    18           4.7418363810         129.0319277837      Hg        Ag (1)
   87    19           4.7418363810         129.0319277837      Hg        Ag (1)
   88   166           4.7418363810         129.0319277837      Hg       B2g (7)
   89   100           4.7418363810         129.0319277837      Hg       B1g (4)
   90   146           4.7418363810         129.0319277837      Hg       B3g (6)
   91    20           4.7546446770         129.3804592369      Ag        Ag (1)
   92    55           6.2144273178         169.1031643569     T1u       B2u (2)
   93    81           6.2144273178         169.1031643569     T1u       B3u (3)
   94   127           6.2144273178         169.1031643569     T1u       B1u (5)
   95    21           7.2023350810         195.9855012651    XXXX      XXXX (1)
   96    22           7.2023350810         195.9855012651    XXXX      XXXX (1)
   97   101           7.2023350810         195.9855012651    XXXX      XXXX (4)
   98    23           7.2023350810         195.9855012651    XXXX      XXXX (1)
   99   167           7.2023350810         195.9855012651    XXXX      XXXX (7)
  100   147           7.2023350810         195.9855012651    XXXX      XXXX (6)
  101    24           7.2023350810         195.9855012651    XXXX      XXXX (1)
  102   148           7.2023350810         195.9855012651    XXXX      XXXX (6)
  103   168           7.2023350810         195.9855012651    XXXX      XXXX (7)
  104   102           7.2023350810         195.9855012651    XXXX      XXXX (4)
  105   149           7.2023350810         195.9855012651    XXXX      XXXX (6)
  106   169           7.2023350810         195.9855012651    XXXX      XXXX (7)
  107   103           7.2023350810         195.9855012651    XXXX      XXXX (4)
  108   128           8.3581982969         227.4381383907               B1u (5)
  109    56           8.3581982969         227.4381383907               B2u (2)
  110    82           8.3581982969         227.4381383907               B3u (3)
  111    57           8.3581982969         227.4381383907               B2u (2)
  112    83           8.3581982969         227.4381383907               B3u (3)
  113   129           8.3581982969         227.4381383907               B1u (5)
  114   184           8.3581982969         227.4381383907                Au (8)
  115    84           8.3581982969         227.4381383907               B3u (3)
  116   130           8.3581982969         227.4381383907               B1u (5)
  117   185           8.3581982969         227.4381383907                Au (8)
  118    58           8.3581982969         227.4381383907               B2u (2)
  119    85           9.3359903024         254.0452115383       u       B3u (3)
  120    59           9.3359903024         254.0452115383       u       B2u (2)
  121   186           9.3359903024         254.0452115383       u        Au (8)
  122   131           9.3359903024         254.0452115383       u       B1u (5)
  123    86           9.3359903024         254.0452115383       u       B3u (3)
  124   132           9.3359903024         254.0452115383       u       B1u (5)
  125    60           9.3359903024         254.0452115383       u       B2u (2)
  126    25          10.1791736851         276.9893978405       g        Ag (1)
  127    26          10.1791736851         276.9893978405       g        Ag (1)
  128   170          10.1791736851         276.9893978405       g       B2g (7)
  129   150          10.1791736851         276.9893978405       g       B3g (6)
  130   104          10.1791736851         276.9893978405       g       B1g (4)
  131   151          10.1791736851         276.9893978405       g       B3g (6)
  132    27          10.1791736851         276.9893978405       g        Ag (1)
  133   171          10.1791736851         276.9893978405       g       B2g (7)
  134   105          10.1791736851         276.9893978405       g       B1g (4)
  135    28          11.3883181531         309.8918915455      Hg        Ag (1)
  136    29          11.3883181531         309.8918915455      Hg        Ag (1)
  137   172          11.3883181531         309.8918915455      Hg       B2g (7)
  138   152          11.3883181531         309.8918915455      Hg       B3g (6)
  139   106          11.3883181531         309.8918915455      Hg       B1g (4)
  140    30          14.8803041008         404.9136599957      Ag        Ag (1)
  141    31          17.2976278531         470.6923834203    XXXX      XXXX (1)
  142   153          17.2976278531         470.6923834203    XXXX      XXXX (6)
  143   173          17.2976278531         470.6923834203    XXXX      XXXX (7)
  144   107          17.2976278531         470.6923834203    XXXX      XXXX (4)
  145    32          17.2976278531         470.6923834203    XXXX      XXXX (1)
  146    33          17.2976278531         470.6923834203    XXXX      XXXX (1)
  147   154          17.2976278531         470.6923834203    XXXX      XXXX (6)
  148   174          17.2976278531         470.6923834203    XXXX      XXXX (7)
  149   108          17.2976278531         470.6923834203    XXXX      XXXX (4)
  150    34          17.2976278531         470.6923834203    XXXX      XXXX (1)
  151   109          17.2976278531         470.6923834203    XXXX      XXXX (4)
  152   155          17.2976278531         470.6923834203    XXXX      XXXX (6)
  153   175          17.2976278531         470.6923834203    XXXX      XXXX (7)
  154    61          18.0831839596         492.0684518163     T1u       B2u (2)
  155   133          18.0831839596         492.0684518163     T1u       B1u (5)
  156    87          18.0831839596         492.0684518163     T1u       B3u (3)
  157    88          20.2081839058         549.8926400795               B3u (3)
  158   134          20.2081839058         549.8926400795               B1u (5)
  159    89          20.2081839058         549.8926400795               B3u (3)
  160    62          20.2081839058         549.8926400795               B2u (2)
  161   187          20.2081839058         549.8926400795                Au (8)
  162    90          20.2081839058         549.8926400795               B3u (3)
  163   135          20.2081839058         549.8926400795               B1u (5)
  164    63          20.2081839058         549.8926400795               B2u (2)
  165   188          20.2081839058         549.8926400795                Au (8)
  166   136          20.2081839058         549.8926400795               B1u (5)
  167    64          20.2081839058         549.8926400795               B2u (2)
  168    91          20.8840650627         568.2843013710       u       B3u (3)
  169    65          20.8840650627         568.2843013710       u       B2u (2)
  170   137          20.8840650627         568.2843013710       u       B1u (5)
  171    92          20.8840650627         568.2843013710       u       B3u (3)
  172   138          20.8840650627         568.2843013710       u       B1u (5)
  173   189          20.8840650627         568.2843013710       u        Au (8)
  174    66          20.8840650627         568.2843013710       u       B2u (2)
  175    35          23.9006896039         650.3708283369       g        Ag (1)
  176   176          23.9006896039         650.3708283369       g       B2g (7)
  177   156          23.9006896039         650.3708283369       g       B3g (6)
  178   110          23.9006896039         650.3708283369       g       B1g (4)
  179    36          23.9006896039         650.3708283369       g        Ag (1)
  180    37          23.9006896039         650.3708283369       g        Ag (1)
  181   177          23.9006896039         650.3708283369       g       B2g (7)
  182   111          23.9006896039         650.3708283369       g       B1g (4)
  183   157          23.9006896039         650.3708283369       g       B3g (6)
  184    38          28.0358431902         762.8940779917      Hg        Ag (1)
  185   178          28.0358431902         762.8940779917      Hg       B2g (7)
  186   158          28.0358431902         762.8940779917      Hg       B3g (6)
  187    39          28.0358431902         762.8940779917      Hg        Ag (1)
  188   112          28.0358431902         762.8940779917      Hg       B1g (4)
  189    40          74.7807560913        2034.8878249431      Ag        Ag (1)


 
  ORBITAL EIGENVALUES ( BETA)  (1H = 27.2113834 eV)

       MO #        E(hartree)               E(eV)           FULLSYM    COMPSYM
       ----   --------------------   --------------------   -------   ---------
    1     1         -15.5858553667        -424.1126859999      Ag        Ag (1)
    2     2          -0.7393228455         -20.1179974065      Ag        Ag (1)
  +++++++++++++++++++++++++++++++++++++++++++++++++++++++++++++++++++++++++++++
    3   113           0.0567261673           1.5435974859     T1u       B1u (5)
    4    41           0.0567261673           1.5435974859     T1u       B2u (2)
    5    67           0.0567261673           1.5435974859     T1u       B3u (3)
    6     3           0.0902955599           2.4570671004      Ag        Ag (1)
    7    42           0.1440504250           3.9198113443     T1u       B2u (2)
    8   114           0.1440504250           3.9198113443     T1u       B1u (5)
    9    68           0.1440504250           3.9198113443     T1u       B3u (3)
   10     4           0.2718849289           7.3983650402      Hg        Ag (1)
   11     5           0.2718849289           7.3983650402      Hg        Ag (1)
   12   139           0.2718849289           7.3983650402      Hg       B3g (6)
   13   159           0.2718849289           7.3983650402      Hg       B2g (7)
   14    93           0.2718849289           7.3983650402      Hg       B1g (4)
   15    69           0.3910085509          10.6398835923     T1u       B3u (3)
   16   115           0.3910085509          10.6398835923     T1u       B1u (5)
   17    43           0.3910085509          10.6398835923     T1u       B2u (2)
   18     6           0.4834201811          13.1545318923      Ag        Ag (1)
   19    44           0.6208179325          16.8933147836       u       B2u (2)
   20    70           0.6208179325          16.8933147836       u       B3u (3)
   21    71           0.6208179325          16.8933147836       u       B3u (3)
   22   116           0.6208179325          16.8933147836       u       B1u (5)
   23   117           0.6208179325          16.8933147836       u       B1u (5)
   24    45           0.6208179325          16.8933147836       u       B2u (2)
   25   179           0.6208179325          16.8933147836       u        Au (8)
   26     7           0.8628185790          23.4784871565      Hg        Ag (1)
   27     8           0.8628185790          23.4784871565      Hg        Ag (1)
   28    94           0.8628185790          23.4784871565      Hg       B1g (4)
   29   140           0.8628185790          23.4784871565      Hg       B3g (6)
   30   160           0.8628185790          23.4784871565      Hg       B2g (7)
   31   118           1.0442222815          28.4147328574     T1u       B1u (5)
   32    72           1.0442222815          28.4147328574     T1u       B3u (3)
   33    46           1.0442222815          28.4147328574     T1u       B2u (2)
   34   141           1.6391677576          44.6040223100       g       B3g (6)
   35     9           1.6391677576          44.6040223100       g        Ag (1)
   36   161           1.6391677576          44.6040223100       g       B2g (7)
   37    10           1.6391677576          44.6040223100       g        Ag (1)
   38    95           1.6391677576          44.6040223100       g       B1g (4)
   39    11           1.6391677576          44.6040223100       g        Ag (1)
   40   162           1.6391677576          44.6040223100       g       B2g (7)
   41    96           1.6391677576          44.6040223100       g       B1g (4)
   42   142           1.6391677576          44.6040223100       g       B3g (6)
   43    12           1.6393553783          44.6091277282      Ag        Ag (1)
   44   119           1.8313221598          49.8328094185       u       B1u (5)
   45   120           1.8313221598          49.8328094185       u       B1u (5)
   46    47           1.8313221598          49.8328094185       u       B2u (2)
   47    73           1.8313221598          49.8328094185       u       B3u (3)
   48    48           1.8313221598          49.8328094185       u       B2u (2)
   49   180           1.8313221598          49.8328094185       u        Au (8)
   50    74           1.8313221598          49.8328094185       u       B3u (3)
   51    13           2.1093013027          57.3970064551      Hg        Ag (1)
   52    14           2.1093013027          57.3970064551      Hg        Ag (1)
   53   143           2.1093013027          57.3970064551      Hg       B3g (6)
   54   163           2.1093013027          57.3970064551      Hg       B2g (7)
   55    97           2.1093013027          57.3970064551      Hg       B1g (4)
   56    49           2.5910096170          70.5049560802     T1u       B2u (2)
   57    75           2.5910096170          70.5049560802     T1u       B3u (3)
   58   121           2.5910096170          70.5049560802     T1u       B1u (5)
   59    50           3.4583064692          94.1053032486               B2u (2)
   60   122           3.4583064692          94.1053032486               B1u (5)
   61    76           3.4583064692          94.1053032486               B3u (3)
   62    51           3.4583064692          94.1053032486               B2u (2)
   63   123           3.4583064692          94.1053032486               B1u (5)
   64    77           3.4583064692          94.1053032486               B3u (3)
   65   181           3.4583064692          94.1053032486                Au (8)
   66    52           3.4583064692          94.1053032486               B2u (2)
   67   182           3.4583064692          94.1053032486                Au (8)
   68   124           3.4583064692          94.1053032486               B1u (5)
   69    78           3.4583064692          94.1053032486               B3u (3)
   70    53           4.2824946393         116.5326035397       u       B2u (2)
   71   125           4.2824946393         116.5326035397       u       B1u (5)
   72   126           4.2824946393         116.5326035397       u       B1u (5)
   73   183           4.2824946393         116.5326035397       u        Au (8)
   74    79           4.2824946393         116.5326035397       u       B3u (3)
   75    80           4.2824946393         116.5326035397       u       B3u (3)
   76    54           4.2824946393         116.5326035397       u       B2u (2)
   77    15           4.3754535353         119.0621436974       g        Ag (1)
   78   164           4.3754535353         119.0621436974       g       B2g (7)
   79    98           4.3754535353         119.0621436974       g        Ag (4)
   80    16           4.3754535353         119.0621436974       g       B1g (1)
   81   165           4.3754535353         119.0621436974       g       B2g (7)
   82    99           4.3754535353         119.0621436974       g        Ag (4)
   83    17           4.3754535353         119.0621436974       g       B1g (1)
   84   144           4.3754535353         119.0621436974       g       B3g (6)
   85   145           4.3754535353         119.0621436974       g       B3g (6)
   86    18           4.8429799121         131.7841831858      Ag        Ag (1)
   87    19           4.8665011258         132.4242279502      Hg        Ag (1)
   88    20           4.8665011258         132.4242279502      Hg        Ag (1)
   89   146           4.8665011258         132.4242279502      Hg       B3g (6)
   90   166           4.8665011258         132.4242279502      Hg       B2g (7)
   91   100           4.8665011258         132.4242279502      Hg       B1g (4)
   92    55           6.3113141450         171.7395889562     T1u       B2u (2)
   93   127           6.3113141450         171.7395889562     T1u       B1u (5)
   94    81           6.3113141450         171.7395889562     T1u       B3u (3)
   95    21           7.2208733261         196.4899525592    XXXX      XXXX (1)
   96   101           7.2208733261         196.4899525592    XXXX      XXXX (4)
   97    22           7.2208733261         196.4899525592    XXXX      XXXX (1)
   98    23           7.2208733261         196.4899525592    XXXX      XXXX (1)
   99   167           7.2208733261         196.4899525592    XXXX      XXXX (7)
  100   147           7.2208733261         196.4899525592    XXXX      XXXX (6)
  101   148           7.2208733261         196.4899525592    XXXX      XXXX (6)
  102    24           7.2208733261         196.4899525592    XXXX      XXXX (1)
  103   168           7.2208733261         196.4899525592    XXXX      XXXX (7)
  104   149           7.2208733261         196.4899525592    XXXX      XXXX (6)
  105   102           7.2208733261         196.4899525592    XXXX      XXXX (4)
  106   169           7.2208733261         196.4899525592    XXXX      XXXX (7)
  107   103           7.2208733261         196.4899525592    XXXX      XXXX (4)
  108   128           8.3908460034         228.3265276476               B1u (5)
  109    82           8.3908460034         228.3265276476               B3u (3)
  110    56           8.3908460034         228.3265276476               B2u (2)
  111    57           8.3908460034         228.3265276476               B2u (2)
  112    83           8.3908460034         228.3265276476               B3u (3)
  113   129           8.3908460034         228.3265276476               B1u (5)
  114   184           8.3908460034         228.3265276476                Au (8)
  115   130           8.3908460034         228.3265276476               B1u (5)
  116    84           8.3908460034         228.3265276476               B3u (3)
  117   185           8.3908460034         228.3265276476                Au (8)
  118    58           8.3908460034         228.3265276476               B2u (2)
  119    85           9.4138466212         256.1637896793       u       B3u (3)
  120   186           9.4138466212         256.1637896793       u        Au (8)
  121    59           9.4138466212         256.1637896793       u       B2u (2)
  122    86           9.4138466212         256.1637896793       u       B3u (3)
  123   131           9.4138466212         256.1637896793       u       B1u (5)
  124    60           9.4138466212         256.1637896793       u       B2u (2)
  125   132           9.4138466212         256.1637896793       u       B1u (5)
  126    25          10.2352314326         278.5148066998       g        Ag (1)
  127   150          10.2352314326         278.5148066998       g       B3g (6)
  128    26          10.2352314326         278.5148066998       g        Ag (1)
  129   170          10.2352314326         278.5148066998       g       B2g (7)
  130   151          10.2352314326         278.5148066998       g       B3g (6)
  131   171          10.2352314326         278.5148066998       g       B2g (7)
  132    27          10.2352314326         278.5148066998       g        Ag (1)
  133   104          10.2352314326         278.5148066998       g       B1g (4)
  134   105          10.2352314326         278.5148066998       g       B1g (4)
  135    28          11.4825577031         312.4562800724      Hg        Ag (1)
  136    29          11.4825577031         312.4562800724      Hg        Ag (1)
  137   152          11.4825577031         312.4562800724      Hg       B3g (6)
  138   172          11.4825577031         312.4562800724      Hg       B2g (7)
  139   106          11.4825577031         312.4562800724      Hg       B1g (4)
  140    30          14.9449827231         406.6736547843      Ag        Ag (1)
  141    31          17.3299082960         471.5707789286    XXXX      XXXX (1)
  142   173          17.3299082960         471.5707789286    XXXX      XXXX (7)
  143   153          17.3299082960         471.5707789286    XXXX      XXXX (6)
  144    32          17.3299082960         471.5707789286    XXXX      XXXX (1)
  145   154          17.3299082960         471.5707789286    XXXX      XXXX (6)
  146    33          17.3299082960         471.5707789286    XXXX      XXXX (1)
  147   107          17.3299082960         471.5707789286    XXXX      XXXX (4)
  148   174          17.3299082960         471.5707789286    XXXX      XXXX (7)
  149    34          17.3299082960         471.5707789286    XXXX      XXXX (1)
  150   175          17.3299082960         471.5707789286    XXXX      XXXX (7)
  151   155          17.3299082960         471.5707789286    XXXX      XXXX (6)
  152   108          17.3299082960         471.5707789286    XXXX      XXXX (4)
  153   109          17.3299082960         471.5707789286    XXXX      XXXX (4)
  154    61          18.1444288304         493.7350094786     T1u       B2u (2)
  155   133          18.1444288304         493.7350094786     T1u       B1u (5)
  156    87          18.1444288304         493.7350094786     T1u       B3u (3)
  157    88          20.2533913054         551.1227959616               B3u (3)
  158   134          20.2533913054         551.1227959616               B1u (5)
  159    62          20.2533913054         551.1227959616               B2u (2)
  160    89          20.2533913054         551.1227959616               B3u (3)
  161    90          20.2533913054         551.1227959616               B3u (3)
  162   187          20.2533913054         551.1227959616                Au (8)
  163   135          20.2533913054         551.1227959616               B1u (5)
  164    63          20.2533913054         551.1227959616               B2u (2)
  165   188          20.2533913054         551.1227959616                Au (8)
  166    64          20.2533913054         551.1227959616               B2u (2)
  167   136          20.2533913054         551.1227959616               B1u (5)
  168    91          20.9485485600         570.0389865405       u       B3u (3)
  169    65          20.9485485600         570.0389865405       u       B2u (2)
  170   137          20.9485485600         570.0389865405       u       B1u (5)
  171   189          20.9485485600         570.0389865405       u        Au (8)
  172    92          20.9485485600         570.0389865405       u       B3u (3)
  173   138          20.9485485600         570.0389865405       u       B1u (5)
  174    66          20.9485485600         570.0389865405       u       B2u (2)
  175    35          23.9547542810         651.8420029943       g        Ag (1)
  176   176          23.9547542810         651.8420029943       g       B2g (7)
  177   156          23.9547542810         651.8420029943       g       B3g (6)
  178   110          23.9547542810         651.8420029943       g       B1g (4)
  179   177          23.9547542810         651.8420029943       g       B2g (7)
  180    36          23.9547542810         651.8420029943       g        Ag (1)
  181   111          23.9547542810         651.8420029943       g       B1g (4)
  182   157          23.9547542810         651.8420029943       g        Ag (6)
  183    37          23.9547542810         651.8420029943       g       B3g (1)
  184    38          28.0912213379         764.4009940008      Hg        Ag (1)
  185   158          28.0912213379         764.4009940008      Hg       B3g (6)
  186   178          28.0912213379         764.4009940008      Hg       B2g (7)
  187    39          28.0912213379         764.4009940008      Hg        Ag (1)
  188   112          28.0912213379         764.4009940008      Hg       B1g (4)
  189    40          74.8024503370        2035.4781553799      Ag        Ag (1)


  VSCF finished.

 @CHECKOUT-I, Total execution time (CPU/WALL):        6.33/       3.90 seconds.
--executable xvscf finished with status     0 in        3.94 seconds (walltime).
 --invoking executable--
/cvmfs/restricted.computecanada.ca/easybuild/software/2020/avx2/Compiler/intel2020/cfour/2.1/bin/xvtran
 @GETMEM-I,  Allocated   19073 MB of main memory.
  Full UHF integral transformation
  The following   1 alpha MOs will be dropped.
    1
  There are 188 active alpha molecular orbitals.
  The following   1 beta MOs will be dropped.
    1
  There are 188 active beta molecular orbitals.
  Transformation of IIII integrals :
  2 passes through the AO integral file were required.
      480616 AO integrals were read.
      558594 MO integrals (Spin case AAAA) were written to HF2AA.
      558594 MO integrals (Spin case BBBB) were written to HF2BB.
     1114659 MO integrals (Spin case AABB) were written to HF2AB.
  Transformation of IIJJ integrals :
  2 passes through the AO integral file were required.
     2362312 AO integrals were read.
     2640591 MO integrals (Spin case AAAA) were written to HF2AA.
     2640591 MO integrals (Spin case BBBB) were written to HF2BB.
     5281182 MO integrals (Spin case AABB) were written to HF2AB.
  Transformation of IJIJ integrals :
  2 passes through the AO integral file were required.
     4112139 AO integrals were read.
     4892091 MO integrals (Spin case AAAA) were written to HF2AA.
     4892091 MO integrals (Spin case BBBB) were written to HF2BB.
     9768945 MO integrals (Spin case AABB) were written to HF2AB.
  Transformation of IJKL integrals :
  2 passes through the AO integral file were required.
    10108732 AO integrals were read.
    11732448 MO integrals (Spin case AAAA) were written to HF2AA.
    11732448 MO integrals (Spin case BBBB) were written to HF2BB.
    23464896 MO integrals (Spin case AABB) were written to HF2AB.
  Summary of active molecular orbitals: 
------------------------------------------------------------------------
                         * Spin case alpha *
 
  Index      Eigenvalue    Symmetry    Index      Eigenvalue    Symmetry
------------------------------------------------------------------------
     1        -1.1510337        1        95         1.6288978        4
     2        -0.5675890        2        96         1.6288978        4
     3        -0.5675890        3        97         1.9886490        4
     4        -0.5675890        5        98         4.3394426        4
     5         0.0810189        1        99         4.3394426        4
     6         0.2639990        1       100         4.7418364        4
     7         0.2639990        1       101         7.2023351        4
     8         0.4440488        1       102         7.2023351        4
     9         0.8019188        1       103         7.2023351        4
    10         0.8019188        1       104        10.1791737        4
    11         1.5636849        1       105        10.1791737        4
    12         1.6288978        1       106        11.3883182        4
    13         1.6288978        1       107        17.2976279        4
    14         1.6288978        1       108        17.2976279        4
    15         1.9886490        1       109        17.2976279        4
    16         1.9886490        1       110        23.9006896        4
    17         4.3394426        1       111        23.9006896        4
    18         4.3394426        1       112        28.0358432        4
    19         4.3394426        1       113         0.0724884        5
    20         4.7418364        1       114         0.3070770        5
    21         4.7418364        1       115         0.6153654        5
    22         4.7546447        1       116         0.6153654        5
    23         7.2023351        1       117         0.9379707        5
    24         7.2023351        1       118         1.7968680        5
    25         7.2023351        1       119         1.7968680        5
    26         7.2023351        1       120         2.4804615        5
    27        10.1791737        1       121         3.4446133        5
    28        10.1791737        1       122         3.4446133        5
    29        10.1791737        1       123         3.4446133        5
    30        11.3883182        1       124         4.2143925        5
    31        11.3883182        1       125         4.2143925        5
    32        14.8803041        1       126         6.2144273        5
    33        17.2976279        1       127         8.3581983        5
    34        17.2976279        1       128         8.3581983        5
    35        17.2976279        1       129         8.3581983        5
    36        17.2976279        1       130         9.3359903        5
    37        23.9006896        1       131         9.3359903        5
    38        23.9006896        1       132        18.0831840        5
    39        23.9006896        1       133        20.2081839        5
    40        28.0358432        1       134        20.2081839        5
    41        28.0358432        1       135        20.2081839        5
    42        74.7807561        1       136        20.8840651        5
    43         0.0724884        2       137        20.8840651        5
    44         0.3070770        2       138         0.2639990        6
    45         0.6153654        2       139         0.8019188        6
    46         0.6153654        2       140         1.6288978        6
    47         0.9379707        2       141         1.6288978        6
    48         1.7968680        2       142         1.9886490        6
    49         1.7968680        2       143         4.3394426        6
    50         2.4804615        2       144         4.3394426        6
    51         3.4446133        2       145         4.7418364        6
    52         3.4446133        2       146         7.2023351        6
    53         3.4446133        2       147         7.2023351        6
    54         4.2143925        2       148         7.2023351        6
    55         4.2143925        2       149        10.1791737        6
    56         6.2144273        2       150        10.1791737        6
    57         8.3581983        2       151        11.3883182        6
    58         8.3581983        2       152        17.2976279        6
    59         8.3581983        2       153        17.2976279        6
    60         9.3359903        2       154        17.2976279        6
    61         9.3359903        2       155        23.9006896        6
    62        18.0831840        2       156        23.9006896        6
    63        20.2081839        2       157        28.0358432        6
    64        20.2081839        2       158         0.2639990        7
    65        20.2081839        2       159         0.8019188        7
    66        20.8840651        2       160         1.6288978        7
    67        20.8840651        2       161         1.6288978        7
    68         0.0724884        3       162         1.9886490        7
    69         0.3070770        3       163         4.3394426        7
    70         0.6153654        3       164         4.3394426        7
    71         0.6153654        3       165         4.7418364        7
    72         0.9379707        3       166         7.2023351        7
    73         1.7968680        3       167         7.2023351        7
    74         1.7968680        3       168         7.2023351        7
    75         2.4804615        3       169        10.1791737        7
    76         3.4446133        3       170        10.1791737        7
    77         3.4446133        3       171        11.3883182        7
    78         3.4446133        3       172        17.2976279        7
    79         4.2143925        3       173        17.2976279        7
    80         4.2143925        3       174        17.2976279        7
    81         6.2144273        3       175        23.9006896        7
    82         8.3581983        3       176        23.9006896        7
    83         8.3581983        3       177        28.0358432        7
    84         8.3581983        3       178         0.6153654        8
    85         9.3359903        3       179         1.7968680        8
    86         9.3359903        3       180         3.4446133        8
    87        18.0831840        3       181         3.4446133        8
    88        20.2081839        3       182         4.2143925        8
    89        20.2081839        3       183         8.3581983        8
    90        20.2081839        3       184         8.3581983        8
    91        20.8840651        3       185         9.3359903        8
    92        20.8840651        3       186        20.2081839        8
    93         0.2639990        4       187        20.2081839        8
    94         0.8019188        4       188        20.8840651        8
------------------------------------------------------------------------
[...]
   1.83132215977423        1.83132215977424        2.59100961695969     
   3.45830646921819        3.45830646921820        3.45830646921822     
   4.28249463934771        4.28249463934775        6.31131414495469     
   8.39084600335140        8.39084600335141        8.39084600335147     
   9.41384662123682        9.41384662123687        18.1444288304217     
   20.2533913054051        20.2533913054052        20.2533913054052     
   20.9485485600308        20.9485485600309       5.672616725231614E-002
  0.144050425025567       0.391008550939850       0.620817932527584     
  0.620817932527588        1.04422228152589        1.83132215977423     
   1.83132215977424        2.59100961695970        3.45830646921820     
   3.45830646921821        3.45830646921823        4.28249463934773     
   4.28249463934775        6.31131414495475        8.39084600335140     
   8.39084600335142        8.39084600335145        9.41384662123680     
   9.41384662123685        18.1444288304228        20.2533913054051     
   20.2533913054051        20.2533913054052        20.9485485600307     
   20.9485485600308       0.271884928870483       0.862818578950897     
   1.63916775763956        1.63916775763957        2.10930130274311     
   4.37545353527957        4.37545353527957        4.86650112578182     
   7.22087332609628        7.22087332609634        7.22087332609635     
   10.2352314325863        10.2352314325864        11.4825577031280     
   17.3299082959729        17.3299082959730        17.3299082959730     
   23.9547542810457        23.9547542810457        28.0912213379359     
  5.672616725231504E-002  0.144050425025565       0.391008550939856     
  0.620817932527589       0.620817932527590        1.04422228152587     
   1.83132215977421        1.83132215977422        2.59100961695972     
   3.45830646921820        3.45830646921821        3.45830646921822     
   4.28249463934771        4.28249463934772        6.31131414495474     
   8.39084600335138        8.39084600335143        8.39084600335145     
   9.41384662123686        9.41384662123687        18.1444288304225     
   20.2533913054051        20.2533913054052        20.2533913054052     
   20.9485485600308        20.9485485600308       0.271884928870476     
  0.862818578950899        1.63916775763956        1.63916775763958     
   2.10930130274310        4.37545353527957        4.37545353527958     
   4.86650112578178        7.22087332609631        7.22087332609632     
   7.22087332609633        10.2352314325863        10.2352314325863     
   11.4825577031279        17.3299082959729        17.3299082959729     
   17.3299082959730        23.9547542810457        23.9547542810457     
   28.0912213379359       0.271884928870481       0.862818578950913     
   1.63916775763956        1.63916775763957        2.10930130274310     
   4.37545353527957        4.37545353527957        4.86650112578182     
   7.22087332609630        7.22087332609633        7.22087332609634     
   10.2352314325863        10.2352314325863        11.4825577031279     
   17.3299082959729        17.3299082959730        17.3299082959730     
   23.9547542810456        23.9547542810457        28.0912213379359     
  0.620817932527595        1.83132215977424        3.45830646921822     
   3.45830646921822        4.28249463934772        8.39084600335145     
   8.39084600335146        9.41384662123682        20.2533913054052     
   20.2533913054052        20.9485485600308     
 @CHECKOUT-I, Total execution time (CPU/WALL):       16.99/      66.13 seconds.
--executable xvtran finished with status     0 in       66.17 seconds (walltime).
 --invoking executable--
/cvmfs/restricted.computecanada.ca/easybuild/software/2020/avx2/Compiler/intel2020/cfour/2.1/bin/xintprc
 @GETMEM-I,  Allocated   19073 MB of main memory.
  @GMOIAA-I, Processing MO integrals for spin case AA.
  @GMOIAA-I, Generation of integral list completed.
                      TYPE                NUMBER
                      ----               --------
                      PPPP              18185494
                      PPPH               1579844
                      PPHH                 35028
                      PHPH                 22338
                      PHHH                  1004
                      HHHH                    16

                     TOTAL              19823724
  @GMOIAA-I, Processing MO integrals for spin case BB.
  @GMOIAA-I, Generation of integral list completed.
                      TYPE                NUMBER
                      ----               --------
                      PPPP              19399663
                      PPPH                419042
                      PPHH                  2490
                      PHPH                  2490
                      PHHH                    38
                      HHHH                     1

                     TOTAL              19823724
  @GMOIAB-I, Processing MO integrals for spin case AB.
                      TYPE                NUMBER
                      ----               --------
                      PPPP              37548124
                      PPPH1H             1632086
                      PPPH2H              405614
                      PPHH                 17969
                      PHPH1P                2412
                      PHPH2P               23070
                      PHHH1P                 113
                      PHHH2P                 290
                      HHHH                     4

                     TOTAL              39629682

  @FORMT2-I, Second-order MP correlation energies:
  @FORMT2-I, Singles contribution will be calculated.
            ------------------------------------------------
            E(SCF)                  =    -54.400923647148 a.u.
            E2(AA)                  =     -0.032066826670 a.u.
            E2(BB)                  =      0.000000000000 a.u.
            E2(AB)                  =     -0.077791496691 a.u.
            E2(SINGLE)              =     -0.002136290122 a.u.
            E2(TOT)                 =     -0.109858323361 a.u.
            Total MP2 energy        =    -54.512918260631 a.u.
            ------------------------------------------------
            ----------------------------------------------
                     Projected spin multiplicities: 
            ----------------------------------------------
             <0|S^2|0>                  =    3.7500000000.
             <0|S^2 T2|0>               =    0.0000000000.
             Projected <0|S^2 exp(T)|0> =    3.7500000000.
             Approximate spin mult.     =    4.0000000000.
            ----------------------------------------------
   Largest T2 amplitudes for spin case AA:
   i   j   a   b             i   j   a   b             i   j   a   b
-----------------------------------------------------------------------------
[  4   3 117  72]-0.01386 [  3   2  72  47]-0.01386 [  4   2 117  47]-0.01386
[  3   2  94   9]-0.01262 [  3   2  97  15]-0.01162 [  3   2  72  44]-0.01159
[  4   2 117  44]-0.01159 [  4   3 114  72]-0.01159 [  4   2 114  47]-0.01159
[  4   3 117  69]-0.01159 [  3   2  69  47]-0.01159 [  4   2 139  10] 0.01143
[  4   2 114  44]-0.01122 [  3   2  69  44]-0.01122 [  4   3 114  69]-0.01122
-----------------------------------------------------------------------------
   Norm of T2AA vector (    12690 symmetry allowed elements):  0.0861238442.
-----------------------------------------------------------------------------
   Largest T2 amplitudes for spin case AB:
       _       _                 _       _                 _       _
   i   j   a   b             i   j   a   b             i   j   a   b
-----------------------------------------------------------------------------
[  4   1  10 113] 0.01865 [  4   1  16 113]-0.01710 [  3   1   9  67]-0.01689
[  4   1 139  41] 0.01620 [  2   1 139 113] 0.01620 [  3   1  94  41] 0.01620
[  3   1 159 113] 0.01620 [  2   1  94  67] 0.01620 [  4   1 159  67] 0.01620
[  2   1   9  41] 0.01541 [  2   1  15  41]-0.01528 [  2   1 142 113]-0.01483
[  3   1 162 113]-0.01483 [  4   1 142  41]-0.01483 [  3   1  97  41]-0.01483
-----------------------------------------------------------------------------
   Norm of T2AB vector (    17969 symmetry allowed elements):  0.1376893074.
-----------------------------------------------------------------------------
 @CHECKOUT-I, Total execution time (CPU/WALL):       15.09/     103.93 seconds.
--executable xintprc finished with status     0 in      104.07 seconds (walltime).
  calling xvcc 
 --invoking executable--
/cvmfs/restricted.computecanada.ca/easybuild/software/2020/avx2/Compiler/intel2020/cfour/2.1/bin/xvcc
 @GETMEM-I,  Allocated   19073 MB of main memory.
   CCSDT   energy will be calculated.
   The reference state is a ROHF wave function.
   The total correlation energy is -0.112043437747 a.u.
  transposing abij 
   The total correlation energy is -0.123974579250 a.u.
  Convergence information after     1 iterations: 
  Largest element of residual vector :  0.44990784E-02.
  Largest element of DIIS residual   :  0.44990784E-02.
  transposing abij 
   The total correlation energy is -0.126968093071 a.u.
  Convergence information after     2 iterations: 
  Largest element of residual vector :  0.15473575E-02.
  Largest element of DIIS residual   : -0.15906665E-02.
  transposing abij 
   The total correlation energy is -0.128101223010 a.u.
  Convergence information after     3 iterations: 
  Largest element of residual vector :  0.53942157E-03.
  Largest element of DIIS residual   :  0.78515778E-03.
  transposing abij 
   The total correlation energy is -0.128263521840 a.u.
  Convergence information after     4 iterations: 
  Largest element of residual vector :  0.27085700E-03.
  Largest element of DIIS residual   :  0.14766969E-03.
  transposing abij 
   The total correlation energy is -0.128301996369 a.u.
  Convergence information after     5 iterations: 
  Largest element of residual vector :  0.10684709E-03.
  Largest element of DIIS residual   :  0.49989338E-04.
  transposing abij 
   The total correlation energy is -0.128303555358 a.u.
  Convergence information after     6 iterations: 
  Largest element of residual vector :  0.28405711E-04.
  Largest element of DIIS residual   :  0.23156879E-04.
  transposing abij 
   The total correlation energy is -0.128305724320 a.u.
  Convergence information after     7 iterations: 
  Largest element of residual vector :  0.86601832E-05.
  Largest element of DIIS residual   :  0.33798109E-05.
  transposing abij 
   The total correlation energy is -0.128306566922 a.u.
  Convergence information after     8 iterations: 
  Largest element of residual vector :  0.16109234E-05.
  Largest element of DIIS residual   :  0.11198725E-05.
  transposing abij 
   The total correlation energy is -0.128306553885 a.u.
  Convergence information after     9 iterations: 
  Largest element of residual vector :  0.56231124E-06.
  Largest element of DIIS residual   : -0.34944144E-06.
  transposing abij 
   The total correlation energy is -0.128306559072 a.u.
  Convergence information after    10 iterations: 
  Largest element of residual vector :  0.12941680E-06.
  Largest element of DIIS residual   :  0.11608333E-06.
  transposing abij 
   The total correlation energy is -0.128306572524 a.u.
  Convergence information after    11 iterations: 
  Largest element of residual vector :  0.61062508E-07.
  Largest element of DIIS residual   :  0.35330006E-07.
  transposing abij 
   The total correlation energy is -0.128306582906 a.u.
  Convergence information after    12 iterations: 
  Largest element of residual vector :  0.16496053E-07.
  Largest element of DIIS residual   :  0.54129059E-08.
  transposing abij 
   The total correlation energy is -0.128306586404 a.u.
  Convergence information after    13 iterations: 
  Largest element of residual vector :  0.53517238E-08.
  Largest element of DIIS residual   :  0.35128617E-08.
  transposing abij 
   The total correlation energy is -0.128306587560 a.u.
  Convergence information after    14 iterations: 
  Largest element of residual vector :  0.35205282E-08.
  Largest element of DIIS residual   :  0.19633867E-08.
  transposing abij 
   The total correlation energy is -0.128306588108 a.u.
  Convergence information after    15 iterations: 
  Largest element of residual vector : -0.89899377E-09.
  Largest element of DIIS residual   :  0.14809557E-08.
  transposing abij 
   The total correlation energy is -0.128306588252 a.u.
  Convergence information after    16 iterations: 
  Largest element of residual vector :  0.11135785E-08.
  Largest element of DIIS residual   :  0.44998274E-09.
  transposing abij 
   The total correlation energy is -0.128306588409 a.u.
  Convergence information after    17 iterations: 
  Largest element of residual vector :  0.37916066E-09.
  Largest element of DIIS residual   :  0.20179765E-09.
  transposing abij 
   The total correlation energy is -0.128306588413 a.u.
  Convergence information after    18 iterations: 
  Largest element of residual vector :  0.52997251E-09.
  Largest element of DIIS residual   :  0.95297581E-10.
  transposing abij 
   The total correlation energy is -0.128306588455 a.u.
  Convergence information after    19 iterations: 
  Largest element of residual vector :  0.12923990E-09.
  Largest element of DIIS residual   :  0.13371449E-10.
  transposing abij 
   The total correlation energy is -0.128306588467 a.u.
  Convergence information after    20 iterations: 
  Largest element of residual vector :  0.24322478E-10.
  Largest element of DIIS residual   :  0.89553590E-11.
  Amplitude equations converged in    20iterations.
   The total correlation energy is -0.128306588470 a.u.
   The CC iterations have converged.

            ----------------------------------------------
                     Projected spin multiplicities: 
            ----------------------------------------------
             <0|S^2|0>                  =    3.7500000000.
             <0|S^2 (T2+T1**2) |0>      =    0.0000000000.
             <0|S^2 T1|0>               =    0.0000000000.
             Projected <0|S^2 exp(T)|0> =    3.7500000000.
             Approximate spin mult.     =    4.0000000000.
            ----------------------------------------------
   Largest T1 amplitudes for spin case AA:
   i       a                 i       a                 i       a    
-----------------------------------------------------------------------------
[  1       8    ] 0.02178 [  1       5    ]-0.01390 [  1      11    ]-0.01374
[  4     113    ]-0.00284 [  2      43    ]-0.00284 [  3      68    ]-0.00284
[  2      50    ] 0.00264 [  4     120    ] 0.00264 [  3      75    ] 0.00264
[  3      69    ]-0.00240 [  2      44    ]-0.00240 [  4     114    ]-0.00240
[  1      22    ] 0.00238 [  4     117    ] 0.00210 [  3      72    ] 0.00210
-----------------------------------------------------------------------------
   Norm of T1AA vector (      113 symmetry allowed elements):  0.0306503279.
-----------------------------------------------------------------------------
   Largest T2 amplitudes for spin case AA:
   i   j   a   b             i   j   a   b             i   j   a   b
-----------------------------------------------------------------------------
[  4   3 117  72]-0.01679 [  3   2  72  47]-0.01679 [  4   2 117  47]-0.01679
[  4   3 114  72]-0.01447 [  3   2  72  44]-0.01447 [  4   2 117  44]-0.01447
[  4   2 114  47]-0.01447 [  4   3 117  69]-0.01447 [  3   2  69  47]-0.01447
[  4   2 114  44]-0.01412 [  3   2  69  44]-0.01412 [  4   3 114  69]-0.01412
[  3   2  94   9]-0.01340 [  3   2  97  15]-0.01216 [  4   2 139  10] 0.01214
-----------------------------------------------------------------------------
   Norm of T2AA vector (    12690 symmetry allowed elements):  0.0984757687.
-----------------------------------------------------------------------------
   Largest T1 amplitudes for spin case BB:
   i       a                 i       a                 i       a    
-----------------------------------------------------------------------------
[  1       5    ]-0.02661 [  1       2    ] 0.02202 [  1      11    ] 0.00988
[  1      29    ]-0.00066 [  1      17    ] 0.00056 [  1      39    ] 0.00003
[  1       9    ] 0.00000 [  1       8    ]-0.00000 [  1      10    ]-0.00000
[  1      37    ]-0.00000 [  1      27    ]-0.00000 [  1       3    ]-0.00000
[  1       4    ]-0.00000 [  1      38    ] 0.00000 [  1      18    ] 0.00000
-----------------------------------------------------------------------------
   Norm of T1BB vector (       38 symmetry allowed elements):  0.0359406336.
-----------------------------------------------------------------------------
   Largest T2 amplitudes for spin case AB:
       _       _                 _       _                 _       _
   i   j   a   b             i   j   a   b             i   j   a   b
-----------------------------------------------------------------------------
[  4   1  10 113] 0.02571 [  3   1   9  67]-0.02330 [  3   1  94  41] 0.02234
[  3   1 159 113] 0.02234 [  2   1 139 113] 0.02234 [  4   1 139  41] 0.02234
[  2   1  94  67] 0.02234 [  4   1 159  67] 0.02234 [  4   1  16 113]-0.02146
[  2   1   9  41] 0.02124 [  2   1  15  41]-0.01917 [  3   1 162 113]-0.01861
[  2   1 142 113]-0.01861 [  4   1 142  41]-0.01861 [  3   1  97  41]-0.01861
-----------------------------------------------------------------------------
   Norm of T2AB vector (    17969 symmetry allowed elements):  0.1752410067.
-----------------------------------------------------------------------------
       Summary of iterative solution of CC equations 
      -----------------------------------------------------------
                       Correlation           Total
       Iteration         Energy              Energy
      -----------------------------------------------------------
            0        -0.112043437747     -54.512967084894  DIIS 
            1        -0.123974579250     -54.524898226397  DIIS 
            2        -0.126968093071     -54.527891740219  DIIS 
            3        -0.128101223010     -54.529024870157  DIIS 
            4        -0.128263521840     -54.529187168987  DIIS 
            5        -0.128301996369     -54.529225643516  DIIS 
            6        -0.128303555358     -54.529227202506  DIIS 
            7        -0.128305724320     -54.529229371467  DIIS 
            8        -0.128306566922     -54.529230214070  DIIS 
            9        -0.128306553885     -54.529230201032  DIIS 
           10        -0.128306559072     -54.529230206220  DIIS 
           11        -0.128306572524     -54.529230219671  DIIS 
           12        -0.128306582906     -54.529230230054  DIIS 
           13        -0.128306586404     -54.529230233551  DIIS 
           14        -0.128306587560     -54.529230234707  DIIS 
           15        -0.128306588108     -54.529230235255  DIIS 
           16        -0.128306588252     -54.529230235400  DIIS 
           17        -0.128306588409     -54.529230235556  DIIS 
           18        -0.128306588413     -54.529230235561  DIIS 
           19        -0.128306588455     -54.529230235603  DIIS 
           20        -0.128306588470     -54.529230235617  DIIS 
      -----------------------------------------------------------
      A miracle has come to pass. The CC iterations have converged.
      The reference energy is       -54.40092364714750 a.u.
      The correlation energy is      -0.12830658846960 a.u.
      The total energy is           -54.52923023561710 a.u.
 @CHECKOUT-I, Total execution time (CPU/WALL):     1257.65/     741.83 seconds.
--executable xvcc finished with status     0 in      741.89 seconds (walltime).
  The final electronic energy is       -54.529230235617099 a.u. 
  This computation required                          981.54 seconds (walltime).
