 --invoking executable--
/cvmfs/restricted.computecanada.ca/easybuild/software/2020/avx2/Compiler/intel2020/cfour/2.1/bin/xjoda


   *************************************************************************
         <<<     CCCCCC     CCCCCC   |||     CCCCCC     CCCCCC   >>>
       <<<      CCC        CCC       |||    CCC        CCC         >>>
      <<<      CCC        CCC        |||   CCC        CCC            >>>
    <<<        CCC        CCC        |||   CCC        CCC              >>>
      <<<      CCC        CCC        |||   CCC        CCC            >>>
       <<<      CCC        CCC       |||    CCC        CCC         >>>
         <<<     CCCCCC     CCCCCC   |||     CCCCCC     CCCCCC   >>>
   *************************************************************************

     ****************************************************************
     * CFOUR Coupled-Cluster techniques for Computational Chemistry *
     ****************************************************************
 

   Department of Chemistry                Institut fuer Physikalische Chemie
   University of Florida                  Universitaet Mainz
   Gainesville, FL 32611, USA             D-55099 Mainz, Germany

   Department of Chemistry                Fakultaet fuer Chemie und Biowiss.
   Johns Hopkins University               Karlsruher Institut fuer Technologie
   Baltimore, MD 21218, USA               D-76131 Karlsruhe, Germany

   Department of Chemistry                Department of Physical Chemistry
   Southern Methodist University          Eotvos Lorand University
   Dallas, TX 75275, USA                  H-1053 Budapest, Hungary

 
                       Version 2.1
 
                     gra329                                            
                     Fri 15 Mar 2024 11:01:32 PM EDT                   
                     integer*8 version is running
 
********************************************************************************
*                          Input from ZMAT file                                *
********************************************************************************
Test                                                                            
N                                                                               
                                                                                
*ACES2(CALC=CCSD(T)                                                             
FROZEN_CORE=ON                                                                  
#DROPMO=1                                                                       
#INPUT_MRCC=OFF                                                                 
#CC_PROG=MRCC                                                                   
XFORM_TOL=18                                                                    
SAVE_INTS=ON                                                                    
SCF_EXPORDER=6                                                                  
SCF_EXPSTART=5                                                                  
#SCF_DAMPING=1000                                                               
SCF_EXTRAPOLATION=ON                                                            
SCF_CONV=10                                                                     
SCF_MAXCYC=9999                                                                 
CC_CONV=10                                                                      
CC_MAXCYC=999                                                                   
T3_EXTRAPOL=ON                                                                  
REFERENCE=ROHF                                                                  
CHARGE=+0                                                                       
MULT=4                                                                          
ABCDTYPE=STANDARD                                                               
OCCUPATION=2-1-1-0-1-0-0-0/2-0-0-0-0-0-0-0                                      
MEM=20                                                                          
MEM_UNIT=GB                                                                     
BASIS=SPECIAL)                                                                  
                                                                                
N:aVQZ-EMSL                                                                     
                                                                                
********************************************************************************
  @GTFLGS-W, Keyword #DROPMO not known and is ignored.
  @GTFLGS-W, Keyword #INPUT_MRCC not known and is ignored.
  @GTFLGS-W, Keyword #CC_PROG not known and is ignored.
  @GTFLGS-W, Keyword #SCF_DAMPING not known and is ignored.
    -------------------------------------------------------------------
                    CFOUR Control Parameters 
    -------------------------------------------------------------------
        External           Internal           Value            Units
          Name               Name
    -------------------------------------------------------------------
       ABCDTYPE             IABCDT         STANDARD    [  0]    ***   
       ANHARMONIC           IANHAR         OFF         [  0]    ***   
       ANH_ALGORIT          IANALG         STANDARD    [  0]    ***   
       ANH_DERIVAT          IANDER         SECOND      [  1]    ***   
       ANH_MODE             ANHMOD         VIBRATION   [  0]    ***   
       ANH_STEPSIZ          ICUBST             50000          x 10-6  
       ANH_SYMMETR          IANHSM         ABELIAN     [  0]    ***   
       AO_LADDERS           IAOLAD         SINGLEPASS  [  1]    ***   
       AV_SCF               IAVSCF         OFF         [  0]    ***   
       BASIS                IBASIS         SPECIAL     [  0]    ***   
       BOTHVECTORS          BOTHVC         OFF         [  0]    ***   
       BOX_POTENT           IPIAB          OFF         [  0]    ***   
       BREIT                IBREIT         OFF         [  0]    ***   
       BRUCK_CONV           IBRTOL          10D-  4             ***   
       BRUECKNER            IBRKNR         OFF         [  0]    ***   
       BUFFERSIZE           IBUFFS              4096            ***   
       CACHE_RECS           ICHREC             10               ***   
       CALCLEVEL            ICLLVL         CCSD(T)     [ 22]    ***   
       CCORBOPT             ICCORB         OFF         [  0]  x 0.01  
       CC_CONV              ICCCNV          10D- 10             ***   
       CC_EXPORDER          ICCEOR              5               ***   
       CC_EXTRAPOL          ICCEXT         DIIS        [  1]    ***   
       CC_GUESS             ICCGES         MP2         [  0]    ***   
       CC_MAXCYC            ICCCYC            999              cycles 
       CC_PROGRAM           ICCPRO         VCC         [  0]    ***   
       CHARGE               ICHRGE              0               ***   
       CHOLESKY             ICHOLE         OFF         [  0]    ***   
       CIS_CONV             ICISTL              5               ***   
       COMM_SIZE            IPSIZE            ***               ***   
       CONSTANT             ICONST         OLD         [  1]    ***   
       CONTINUUM            ICONTU         NONE        [  0]    ***   
       CONTRACTION          ICNTYP         GENERAL     [  1]    ***   
       COORDINATES          ICOORD         INTERNAL    [  0]    ***   
       CPHF_CONVER          ICPHFT          10D- 16             ***   
       CPHF_MAXCYC          ICPHFC             64              cycles 
       CUBIC                ICUBIC         OFF         [  0]    ***   
       CURVILINEAR          ICURVY         OFF         [  0]    ***   
       DBOC                 IDBOC          OFF         [  0]    ***   
       DCT                  IDCT           OFF         [  0]    ***   
       DERIV_LEV            IDRLVL         ZERO        [  0]    ***   
       DEVMEM_SIZE          IDVMEM         *********           MByte  
       DIAG_MRCC            IEOMST          10D-  0             ***   
       DIFF_TYPE            IDIFTY         RELAXED     [  0]    ***   
       DIRECT               IDIRCT         OFF         [  0]    ***   
       DROPMO               IDRPMO      NONE         
       ECP                  IECP           OFF         [  0]    ***   
       EIGENVECTOR          IVEC                1               ***   
       EL_ANHARM            IELANH         OFF         [  0]    ***   
       EOMFOLLOW            IEOMSR         ENERGY      [  0]    ***   
       EOMIP                IEOMIP         OFF         [  0]    ***   
       EOMLEVEL             HBARFM         SAME        [  0]    ***   
       EOM_MRCC             IMRCCE         NEW         [  1]    ***   
       EOM_NONIT            EOMNON         OFF         [  0]    ***   
       EOM_NSING            IEOMSI          10D-  0             ***   
       EOM_NSTATES          IMRCCD         DAVIDSON    [  0]    ***   
       EOM_NTRIP            IEOMTR          10D-  0             ***   
       EOM_ORDER            IEXORD         ENERGY      [  0]    ***   
       EOM_PROPSTA          IEOMST              0               ***   
       ESTATE_CONV          IEXTOL          10D-  5             ***   
       ESTATE_DIAG          IEXDIG         ITERATIVE   [  0]    ***   
       ESTATE_LOCK          IESLOC         ON          [  1]    ***   
       ESTATE_MAXC          IEXMXC             40               ***   
       ESTATE_PROP          IEXPRP         OFF         [  0]    ***   
       EVAL_HESS            IRECAL              0            # of cyc.
       EXCITATION           IEXCIT              0               ***   
       EXCITE               IEXCIT         NONE        [  0]    ***   
       EXTERN_POT           IEXPOT         OFF         [  0]    ***   
       FCGRADNEW            IFCGNW         OFF         [  0]    ***   
       FC_FIELD             IFINFC              0             x 10-6  
       FD_CALTYPE           IFDCAL         GRADONLY    [  0]    ***   
       FD_PROJECT           IFDPRJ         OFF         [  1]    ***   
       FD_STEPSIZE          IDISFD              0            10-4 bohr
       FD_USEGROUP          IFDGRP         FULL        [  0]    ***   
       FILE_RECSIZ          IFLREC              4096           words  
       FINITE_PERT          IFIPER              0             x 10-6  
       FIXGEOM              IFIXGM         OFF         [  0]    ***   
       FOCK                 IFOCK          AO          [  1]    ***   
       FREQ_ALGORI          IVIALG         STANDARD    [  0]    ***   
       FROZEN_CORE          IFROCO         ON          [  1]    ***   
       GAMMA_ABCD           IGABCD         STORE       [  0]    ***   
       GAMMA_ABCI           IGABCI         STORE       [  0]    ***   
       GENBAS_1             IGNBS1              0               ***   
       GENBAS_2             IGNBS2              0               ***   
       GENBAS_3             IGNBS3              0               ***   
       GENBAS_4             IGNBS4              0               ***   
       GEO_CONV             ICONTL              5              H/bohr 
       GEO_MAXCYC           IOPTCY             50               ***   
       GEO_MAXSTEP          IMXSTP            300            millibohr
       GEO_METHOD           INR            SINGLE_POINT[  5]    ***   
       GIAO                 IGIAO          OFF         [  1]    ***   
       GIMIC                IGIMIC         OFF         [  0]    ***   
       GRID                 IGRID          OFF         [  0]    ***   
       GRID_ALGO            IGALGO         SERIAL      [  0]    ***   
       GUESS                IGUESS         MOREAD      [  0]    ***   
       HBAR                 IHBAR          OFF         [  0]    ***   
       HESS_TYPE            IHESTP         SCF         [  0]    ***   
       HF2_FILE             IHF2Fl         USE         [  1]    ***   
       HFSTABILITY          ISTABL         OFF         [  0]    ***   
       INCORE               INCORE         OFF         [  0]    ***   
       INPUT_MRCC           IMRCC          ON          [  1]    ***   
       INTEGRALS            INTTYP         VMOL        [  1]    ***   
       JODA_PRINT           IJPRNT              0               ***   
       KEYWORD_OUT          IDMPKW         NO          [  0]    ***   
       LINDEP_TOL           ILINDP              8               ***   
       LINEQ_CONV           IZTACN          10D-  7           cycles  
       LINEQ_EXPOR          ILMAXD              5               ***   
       LINEQ_MAXCY          ILMAXC            100               ***   
       LINEQ_TYPE           ILTYPE         DIIS        [  1]    ***   
       LOCK_ORBOCC          ILOCOC         OFF         [  0]    ***   
       MEMORY_SIZE          IMEMSZ         *********           words  
       MEM_UNIT             IMEMU          GB          [  3]    ***   
       MRCC                 IMRCCC         OFF         [  0]    ***   
       MULTIPLICTY          IMULTP              4               ***   
       NACOUPLING           IVCOUP         OFF         [  0]    ***   
       NEGEVAL              IDIE           ABORT       [  0]    ***   
       NEWNORM              INEWNO         OFF         [  0]    ***   
       NON-HF               INONHF         ON          [  1]    ***   
       NTOP_TAMP            ITOPT2             15               ***   
       NUC_MODEL            INUCMO         POINT       [  0]    ***   
       OCCUPATION           IOCCU  A   2,  1,  1,  0,  1,  0,  0,  0,
                                   B   2,  0,  0,  0,  0,  0,  0,  0,
       OPEN-SHELL           IOPEN          SPIN-ORBITAL[  0]    ***   
       OPTVIB               IOPTVB         OFF         [  0]    ***   
       ORBITALS             IORBTP         SEMICANONICA[  1]    ***   
       PARALLEL             IPARAL         ON          [  1]    ***   
       PARA_INT             IPINTS         ON          [  1]    ***   
       PARA_PRINT           IPPRIN              0               ***   
       PERT_ORB             IPTORB         STANDARD    [  0]    ***   
       POINTS               IGRDFD              0               ***   
       PRINT                IPRNT               0               ***   
       PROPS                IPROPS         OFF         [  0]    ***   
       PROP_INTEGR          IINTYP         INTERNAL    [  0]    ***   
       PSI                  IPSI           OFF         [  0]    ***   
       QC_ALG               IQCALG         FLM         [  0]    ***   
       QC_LINALG            IQCLIN         TRIDIAG     [  2]    ***   
       QC_MAXCYC            IQCMAX          10D-100           cycles  
       QC_MAXSCFCY          IQCMSC          10D- 15           cycles  
       QC_RTRUST            IQCRTR          10D-  0           x 10-3  
       QC_SKIPSCF           IQCSKI         OFF         [  0]    ***   
       QC_START             IQCSTA          10D-  1             ***   
       QRHFGUESS            IQGUES         OFF         [  0]    ***   
       QUARTIC              IQUART         OFF         [  0]    ***   
       RAMAN_INT            IRAMIN         OFF         [  0]    ***   
       RAMAN_ORB            IRAMRE         UNRELAXED   [  0]    ***   
       RDO                  IRDOFM         OFF         [  0]    ***   
       REDUCE_REPR          REDREP         Ir          [  0]    ***   
       REFERENCE            IREFNC         ROHF        [  2]    ***   
       RELATIVIST           IRELAT         OFF         [  0]    ***   
       RELAX_DENS           IRDENS         OFF         [  0]    ***   
       RESET_FLAGS          IRESET         OFF         [  0]    ***   
       RESTART_CC           ICCRES         OFF         [  0]    ***   
       ROT_EVEC             ROTVEC              0               ***   
       SAVE_INTS            ISVINT         ON          [  1]    ***   
       SCALE_ON             ISTCRT              0               ***   
       SCF_CONV             ISCFCV          10D- 10             ***   
       SCF_DAMPING          IDAMP               0             x 10-3  
       SCF_EXPORDE          IRPPOR              6               ***   
       SCF_EXPSTAR          IRPPLS              5               ***   
       SCF_EXTRAPO          IRPP           ON          [  1]    ***   
       SCF_MAXCYC           ISCFCY            ***              cycles 
       SCF_NOSTOP           ISCFST         OFF         [  0]    ***   
       SCF_PRINT            ISCFPR              0               ***   
       SCF_PROG             ISCFPR         SCF         [  0]    ***   
       SD_FIELD             IFINSD              0             x 10-6  
       SOPERT               IPERSO         OFF         [  0]    ***   
       SPHERICAL            IDFGHI         ON          [  1]    ***   
       SPINORBIT            ISOCAL         OFF         [  0]    ***   
       SPINROTATIO          ISRCON         OFF         [  0]    ***   
       SPIN_FLIP            ISPFLP         OFF         [  0]    ***   
       SPIN_ORBIT           ISPORB         OFF         [  0]    ***   
       SPIN_SCAL            ISCSMP         OFF         [  0]    ***   
       STEEPSCALE           ISTPSC              1000          x 10-3  
       SUBGROUP             ISUBGP         DEFAULT     [  0]    ***   
       SUBGRPAXIS           ISBXYZ         X           [  0]    ***   
       SYMMETRY             ISYM           ON          [  0]    ***   
       SYM_CHECK            ISYMCK         OVERRIDE    [  1]    ***   
       T3_EXTRAPOL          IT3EXT         ON          [  1]    ***   
       T4_EXTRAPOL          IT4EXP         OFF         [  0]    ***   
       TAMP_SUM             IEVERY              5               ***   
       TESTSUITE            ITESTS         OFF         [  0]    ***   
       THERMOCH             ITHERM         OFF         [  0]    ***   
       TOL_CHOLESK          ITOLCH          10D-  4             ***   
       TRANGRAD             IRESRM         OFF         [  0]    ***   
       TRANS_INV            ITRAIN         USE         [  0]    ***   
       TREAT_PERT           ITREAT         SIMULTANEOUS[  0]    ***   
       TRIP_ALGORI          ITRALG         NORMAL      [  0]    ***   
       UIJ_THRESHO          IUIJTH              1               ***   
       UNITS                IUNITS         ANGSTROM    [  0]    ***   
       UNOS                 IUNOS          OFF         [  0]    ***   
       UPDATE_HESS          IHUPDT         ON          [  1]    ***   
       VIBPHASE             ISETPH         STANDARD    [  0]    ***   
       VIBRATION            IVIB           NO          [  0]    ***   
       VIB_ALGORIT          IGEALG         STANDARD    [  0]    ***   
       VNATORB              IVNORB         OFF         [  0]    ***   
       VTRAN                IVTRAN         FULL/PARTIAL[  0]    ***   
       XFIELD               IXEFLD              0             x 10-6  
       XFORM_TOL            IXFTOL          10D- 18             ***   
       YFIELD               IYEFLD              0             x 10-6  
       ZFIELD               IZEFLD              0             x 10-6  
       ZSCALE_EXP           IZEXPS         OFF         [  0]    ***   
    -------------------------------------------------------------------
   1 entries found in Z-matrix 
   Job Title : Test                                                                            
   Rotational constants (in cm-1): 

   Rotational constants (in MHz): 

********************************************************************************
   The full molecular point group is I h .
   The largest Abelian subgroup of the full molecular point group is D2h .
   The computational point group is D2h .
********************************************************************************
  ECPDATA file not present.   Using default ECPDATA. 
  @GTFLGS-W, Keyword #DROPMO not known and is ignored.
  @GTFLGS-W, Keyword #INPUT_MRCC not known and is ignored.
  @GTFLGS-W, Keyword #CC_PROG not known and is ignored.
  @GTFLGS-W, Keyword #SCF_DAMPING not known and is ignored.
  There is   1 frozen-core orbital.
  There is   1 frozen-core orbital.
  There are   80 basis functions.
 @GEOPT-W, Archive file not created for single-point calculation.
 @CHECKOUT-I, Total execution time (CPU/WALL):        0.22/      14.02 seconds.
--executable xjoda finished with status     0 in       14.19 seconds (walltime).
 --invoking executable--
/cvmfs/restricted.computecanada.ca/easybuild/software/2020/avx2/Compiler/intel2020/cfour/2.1/bin/xvmol
 SERIAL VERSION OF MOLECULE STARTED
********************************************************************************
                    INPUT FROM MOL FILE
********************************************************************************
INTGRL        1    0    1    0    0    0    0    0    0                         
         *** CFOUR Program System (Release V0.1) ***                            
Test                                                                            
    1    3 X  Y   Z   0.10E-08              0    0                              
   9999.00      3.00                                                            
          7.00000000    1    5    1    1    1    1    1                         
N #1   0.000000000000000   0.000000000000000   0.000000000000000                
   13    6                                                                      
   45840.0000000000       9.200000000000000E-005 -2.000000000000000E-005        
  0.000000000000000E+000  0.000000000000000E+000  0.000000000000000E+000        
  0.000000000000000E+000                                                        
   6868.00000000000       7.170000000000000E-004 -1.590000000000000E-004        
  0.000000000000000E+000  0.000000000000000E+000  0.000000000000000E+000        
  0.000000000000000E+000                                                        
   1563.00000000000       3.749000000000000E-003 -8.240000000000000E-004        
  0.000000000000000E+000  0.000000000000000E+000  0.000000000000000E+000        
  0.000000000000000E+000                                                        
   442.400000000000       1.553200000000000E-002 -3.478000000000000E-003        
  0.000000000000000E+000  0.000000000000000E+000  0.000000000000000E+000        
  0.000000000000000E+000                                                        
   144.300000000000       5.314600000000000E-002 -1.196600000000000E-002        
  0.000000000000000E+000  0.000000000000000E+000  0.000000000000000E+000        
  0.000000000000000E+000                                                        
   52.1800000000000       0.146787000000000      -3.538800000000000E-002        
  0.000000000000000E+000  0.000000000000000E+000  0.000000000000000E+000        
  0.000000000000000E+000                                                        
   20.3400000000000       0.304663000000000      -8.007700000000000E-002        
  0.000000000000000E+000  0.000000000000000E+000  0.000000000000000E+000        
  0.000000000000000E+000                                                        
   8.38100000000000       0.397684000000000      -0.146722000000000             
  0.000000000000000E+000  0.000000000000000E+000  0.000000000000000E+000        
  0.000000000000000E+000                                                        
   3.52900000000000       0.217641000000000      -0.116360000000000             
  0.000000000000000E+000  0.000000000000000E+000  0.000000000000000E+000        
  0.000000000000000E+000                                                        
   1.05400000000000       1.696300000000000E-002  0.279919000000000             
   1.00000000000000       0.000000000000000E+000  0.000000000000000E+000        
  0.000000000000000E+000                                                        
  0.411800000000000      -2.745000000000000E-003  0.585481000000000             
  0.000000000000000E+000   1.00000000000000       0.000000000000000E+000        
  0.000000000000000E+000                                                        
  0.155200000000000       9.530000000000000E-004  0.284028000000000             
  0.000000000000000E+000  0.000000000000000E+000   1.00000000000000             
  0.000000000000000E+000                                                        
  5.464000000000000E-002  0.000000000000000E+000  0.000000000000000E+000        
  0.000000000000000E+000  0.000000000000000E+000  0.000000000000000E+000        
   1.00000000000000                                                             
    7    5                                                                      
   49.3300000000000       5.533000000000000E-003  0.000000000000000E+000        
  0.000000000000000E+000  0.000000000000000E+000  0.000000000000000E+000        
   11.3700000000000       3.796200000000000E-002  0.000000000000000E+000        
  0.000000000000000E+000  0.000000000000000E+000  0.000000000000000E+000        
   3.43500000000000       0.149028000000000       0.000000000000000E+000        
  0.000000000000000E+000  0.000000000000000E+000  0.000000000000000E+000        
   1.18200000000000       0.348922000000000        1.00000000000000             
  0.000000000000000E+000  0.000000000000000E+000  0.000000000000000E+000        
  0.417300000000000       0.458972000000000       0.000000000000000E+000        
   1.00000000000000       0.000000000000000E+000  0.000000000000000E+000        
  0.142800000000000       0.244923000000000       0.000000000000000E+000        
  0.000000000000000E+000   1.00000000000000       0.000000000000000E+000        
  4.402000000000000E-002  0.000000000000000E+000  0.000000000000000E+000        
  0.000000000000000E+000  0.000000000000000E+000   1.00000000000000             
    4    4                                                                      
   2.83700000000000        1.00000000000000       0.000000000000000E+000        
  0.000000000000000E+000  0.000000000000000E+000                                
  0.968000000000000       0.000000000000000E+000   1.00000000000000             
  0.000000000000000E+000  0.000000000000000E+000                                
  0.335000000000000       0.000000000000000E+000  0.000000000000000E+000        
   1.00000000000000       0.000000000000000E+000                                
  0.111000000000000       0.000000000000000E+000  0.000000000000000E+000        
  0.000000000000000E+000   1.00000000000000                                     
    3    3                                                                      
   2.02700000000000        1.00000000000000       0.000000000000000E+000        
  0.000000000000000E+000                                                        
  0.685000000000000       0.000000000000000E+000   1.00000000000000             
  0.000000000000000E+000                                                        
  0.245000000000000       0.000000000000000E+000  0.000000000000000E+000        
   1.00000000000000                                                             
    2    2                                                                      
   1.42700000000000        1.00000000000000       0.000000000000000E+000        
  0.559000000000000       0.000000000000000E+000   1.00000000000000             
FINISH                                                                          
 
********************************************************************************
 ONE- AND TWO-ELECTRON INTEGRALS OVER SYMMETRY-ADAPTED AOS ARE CALCULATED.

  SPHERICAL HARMONICS ARE USED.
  
  INTEGRALS LESS THAN  0.10E-13 ARE NEGLECTED.

  NUCLEAR REPULSION ENERGY :    0.0000000000 A.U.
  @MOLECU-I, ONE ELECTRON INTEGRALS (CPU/WALL):        0.02/       0.02 SECONDS.
  @TWOEL-I,      19306 INTEGRALS OF SYMMETRY TYPE  I I I I
  @TWOEL-I,     132000 INTEGRALS OF SYMMETRY TYPE  I J I J
  @TWOEL-I,      82315 INTEGRALS OF SYMMETRY TYPE  I I J J
  @TWOEL-I,     286272 INTEGRALS OF SYMMETRY TYPE  I J K L
  @TWOEL-I, TOTAL NUMBER OF 2-E INTEGRALS     519893.
  @MOLECU-I, TWO ELECTRON INTEGRALS (CPU/WALL):        1.01/       1.09 SECONDS.
 @CHECKOUT-I, Total execution time (CPU/WALL):        1.05/       1.13 seconds.

OMP_NUM_THREADS not specified; defaulting to 1
Running with 1 threads/proc

--executable xvmol finished with status     0 in        1.18 seconds (walltime).
 --invoking executable--
/cvmfs/restricted.computecanada.ca/easybuild/software/2020/avx2/Compiler/intel2020/cfour/2.1/bin/xvmol2ja
 @GETMEM-I,  Allocated   19073 MB of main memory.
 @CHECKOUT-I, Total execution time (CPU/WALL):        0.02/       0.02 seconds.
--executable xvmol2ja finished with status     0 in        0.05 seconds (walltime).
 --invoking executable--
/cvmfs/restricted.computecanada.ca/easybuild/software/2020/avx2/Compiler/intel2020/cfour/2.1/bin/xvscf
  There are   80 functions in the AO basis.

  There are 8 irreducible representations.

       Irrep        # of functions
         1                 20
         2                 11
         3                 11
         4                  8
         5                 11
         6                  8
         7                  8
         8                  3


  Parameters for SCF calculation: 
        SCF reference function: ROHF  
  Maximum number of iterations: 9999
     Full symmetry point group: I h 
     Computational point group: D2h 
        Initial density matrix: MOREAD                 
     SCF convergence tolerance: 10**(-10)
  DIIS convergence acceleration:  ON
          Latest start for DIIS:   5
                     DIIS order:   6

     Alpha population by irrep:   2    1    1    0    1    0    0    0
      Beta population by irrep:   2    0    0    0    0    0    0    0


  Memory information:     390598 words required.
  Fock matrices are constructed from AO integral file.
 @GETMEM-I,  Allocated       2 MB of main memory.
  Initialization and symmetry analysis required      0.003 seconds.

 total no. of electrons in initial guess :  0.000000000000000E+000
 total no. of electrons in initial guess :  0.000000000000000E+000
  --------------------------------------------------------------------
  Iteration         Total Energy            Largest Density Difference
  --------------------------------------------------------------------
       0             0.000000000000000              0.0000000000D+00
   current occupation vector 
     2  1  1  0  1  0  0  0
     2  0  0  0  0  0  0  0
       1           -49.395530829132497              0.1033797252D+02
   current occupation vector 
     2  1  1  0  1  0  0  0
     2  0  0  0  0  0  0  0
       2           -51.423725216047480              0.1033441414D+02
   current occupation vector 
     2  1  1  0  1  0  0  0
     2  0  0  0  0  0  0  0
       3           -53.925387060612614              0.2083350869D+01
   current occupation vector 
     2  1  1  0  1  0  0  0
     2  0  0  0  0  0  0  0
       4           -52.608282948434244              0.1967762401D+01
   current occupation vector 
     2  1  1  0  1  0  0  0
     2  0  0  0  0  0  0  0
       5           -54.148881358995169              0.1538124694D+01
   current occupation vector 
     2  1  1  0  1  0  0  0
     2  0  0  0  0  0  0  0
       6           -54.367252502450270              0.5273383988D+00
   current occupation vector 
     2  1  1  0  1  0  0  0
     2  0  0  0  0  0  0  0
       7           -54.393382774819017              0.1414575615D+00
   current occupation vector 
     2  1  1  0  1  0  0  0
     2  0  0  0  0  0  0  0
       8           -54.395312197854587              0.1564309222D+00
   current occupation vector 
     2  1  1  0  1  0  0  0
     2  0  0  0  0  0  0  0
       9           -54.400079106519662              0.8456055719D-01
   current occupation vector 
     2  1  1  0  1  0  0  0
     2  0  0  0  0  0  0  0
      10           -54.400222060218006              0.1020332903D-01
   current occupation vector 
     2  1  1  0  1  0  0  0
     2  0  0  0  0  0  0  0
      11           -54.400224913333659              0.1630825950D-02
   current occupation vector 
     2  1  1  0  1  0  0  0
     2  0  0  0  0  0  0  0
      12           -54.400224914193892              0.3325141636D-04
   current occupation vector 
     2  1  1  0  1  0  0  0
     2  0  0  0  0  0  0  0
      13           -54.400224914195832              0.1652230500D-05
   current occupation vector 
     2  1  1  0  1  0  0  0
     2  0  0  0  0  0  0  0
      14           -54.400224914195881              0.8335657906D-07
   current occupation vector 
     2  1  1  0  1  0  0  0
     2  0  0  0  0  0  0  0
      15           -54.400224914195796              0.4893996319D-08
   current occupation vector 
     2  1  1  0  1  0  0  0
     2  0  0  0  0  0  0  0
      16           -54.400224914195753              0.4211063720D-09
   current occupation vector 
     2  1  1  0  1  0  0  0
     2  0  0  0  0  0  0  0

  SCF has converged.

 Density matrix saved to file den.dat
 total alpha spin electron number:   4.99999999999999     
 total  beta spin electron number:   2.00000000000000     
     E(ROHF)=       -54.400224914195768              0.1107802738D-10

  Eigenvector printing suppressed.


       The average multiplicity is    4.0000000
  The expectation value of S**2 is    3.7500000

 @PUTMOS-I, Writing converged MOs to NEWMOS. 
 @PUTMOS-I, Symmetry   1 Full Blocks  5 Partial Blocksize   0
 @PUTMOS-I, Symmetry   2 Full Blocks  2 Partial Blocksize   3
 @PUTMOS-I, Symmetry   3 Full Blocks  2 Partial Blocksize   3
 @PUTMOS-I, Symmetry   4 Full Blocks  2 Partial Blocksize   0
 @PUTMOS-I, Symmetry   5 Full Blocks  2 Partial Blocksize   3
 @PUTMOS-I, Symmetry   6 Full Blocks  2 Partial Blocksize   0
 @PUTMOS-I, Symmetry   7 Full Blocks  2 Partial Blocksize   0
 @PUTMOS-I, Symmetry   8 Full Blocks  0 Partial Blocksize   3
 @PUTFOCK-I, Writing converged Fock matrix to NEWFOCK. 
 @PUTFOCK-I, Symmetry   1 Full Blocks  5 Partial Blocksize   0
 @PUTFOCK-I, Symmetry   2 Full Blocks  2 Partial Blocksize   3
 @PUTFOCK-I, Symmetry   3 Full Blocks  2 Partial Blocksize   3
 @PUTFOCK-I, Symmetry   4 Full Blocks  2 Partial Blocksize   0
 @PUTFOCK-I, Symmetry   5 Full Blocks  2 Partial Blocksize   3
 @PUTFOCK-I, Symmetry   6 Full Blocks  2 Partial Blocksize   0
 @PUTFOCK-I, Symmetry   7 Full Blocks  2 Partial Blocksize   0
 @PUTFOCK-I, Symmetry   8 Full Blocks  0 Partial Blocksize   3
  @DMPJOB-I, Rotating orbitals to semicanonical basis.
             *** Eigenvalues correspond to new basis. ***



 
  ORBITAL EIGENVALUES (ALPHA)  (1H = 27.2113834 eV)

       MO #        E(hartree)               E(eV)           FULLSYM    COMPSYM
       ----   --------------------   --------------------   -------   ---------
    1     1         -15.6730655226        -426.4857949898      Ag        Ag (1)
    2     2          -1.1512475525         -31.3270385407      Ag        Ag (1)
    3    51          -0.5675776054         -15.4445718287     T1u       B1u (5)
    4    21          -0.5675776054         -15.4445718287     T1u       B2u (2)
    5    32          -0.5675776054         -15.4445718287     T1u       B3u (3)
  +++++++++++++++++++++++++++++++++++++++++++++++++++++++++++++++++++++++++++++
    6     3           0.1058362750           2.8799514557      Ag        Ag (1)
    7    33           0.1121041526           3.0505090769     T1u       B3u (3)
    8    22           0.1121041526           3.0505090769     T1u       B2u (2)
    9    52           0.1121041526           3.0505090769     T1u       B1u (5)
   10    70           0.3390654567           9.2264401388      Hg       B2g (7)
   11    43           0.3390654567           9.2264401388      Hg       B1g (4)
   12     4           0.3390654567           9.2264401388      Hg        Ag (1)
   13    62           0.3390654567           9.2264401388      Hg       B3g (6)
   14     5           0.3390654567           9.2264401388      Hg        Ag (1)
   15    53           0.5732062470          15.5977349535     T1u       B1u (5)
   16    23           0.5732062470          15.5977349535     T1u       B2u (2)
   17    34           0.5732062470          15.5977349535     T1u       B3u (3)
   18     6           0.6647996111          18.0901171031      Ag        Ag (1)
   19    78           1.0058609364          27.3708675880       u        Au (8)
   20    54           1.0058609364          27.3708675880       u       B1u (5)
   21    24           1.0058609364          27.3708675880       u       B2u (2)
   22    55           1.0058609364          27.3708675880       u       B1u (5)
   23    25           1.0058609364          27.3708675880       u       B2u (2)
   24    35           1.0058609364          27.3708675880       u       B3u (3)
   25    36           1.0058609364          27.3708675880       u       B3u (3)
   26    44           1.0988628056          29.9015771064      Hg       B1g (4)
   27    71           1.0988628056          29.9015771064      Hg       B2g (7)
   28    63           1.0988628056          29.9015771064      Hg       B3g (6)
   29     7           1.0988628056          29.9015771064      Hg        Ag (1)
   30     8           1.0988628056          29.9015771064      Hg        Ag (1)
   31    56           2.1822547417          59.3821704518     T1u       B1u (5)
   32    37           2.1822547417          59.3821704518     T1u       B3u (3)
   33    26           2.1822547417          59.3821704518     T1u       B2u (2)
   34     9           2.8276997431          76.9456218505       g        Ag (1)
   35    10           2.8276997431          76.9456218505       g        Ag (1)
   36    72           2.8276997431          76.9456218505       g       B2g (7)
   37    11           2.8276997431          76.9456218505       g        Ag (1)
   38    64           2.8276997431          76.9456218505       g       B3g (6)
   39    45           2.8276997431          76.9456218505       g       B1g (4)
   40    65           2.8276997431          76.9456218505       g       B3g (6)
   41    46           2.8276997431          76.9456218505       g       B1g (4)
   42    73           2.8276997431          76.9456218505       g       B2g (7)
   43    12           2.9189638054          79.4290432398      Ag        Ag (1)
   44    27           3.1264510701          85.0750587503       u       B2u (2)
   45    28           3.1264510701          85.0750587503       u       B2u (2)
   46    57           3.1264510701          85.0750587503       u       B1u (5)
   47    38           3.1264510701          85.0750587503       u       B3u (3)
   48    79           3.1264510701          85.0750587503       u        Au (8)
   49    58           3.1264510701          85.0750587503       u       B1u (5)
   50    39           3.1264510701          85.0750587503       u       B3u (3)
   51    13           3.1917718153          86.8525265913      Hg        Ag (1)
   52    14           3.1917718153          86.8525265913      Hg        Ag (1)
   53    47           3.1917718153          86.8525265913      Hg       B1g (4)
   54    74           3.1917718153          86.8525265913      Hg       B2g (7)
   55    66           3.1917718153          86.8525265913      Hg       B3g (6)
   56    15           8.1919112151         222.9132368518       g        Ag (1)
   57    75           8.1919112151         222.9132368518       g       B2g (7)
   58    76           8.1919112151         222.9132368518       g       B2g (7)
   59    67           8.1919112151         222.9132368518       g       B3g (6)
   60    48           8.1919112151         222.9132368518       g       B1g (4)
   61    49           8.1919112151         222.9132368518       g       B1g (4)
   62    16           8.1919112151         222.9132368518       g        Ag (1)
   63    68           8.1919112151         222.9132368518       g       B3g (6)
   64    17           8.1919112151         222.9132368518       g        Ag (1)
   65    29           8.2055981253         223.2856766130     T1u       B2u (2)
   66    59           8.2055981253         223.2856766130     T1u       B1u (5)
   67    40           8.2055981253         223.2856766130     T1u       B3u (3)
   68    60           9.0884588420         247.3095380653       u       B1u (5)
   69    30           9.0884588420         247.3095380653       u       B2u (2)
   70    41           9.0884588420         247.3095380653       u       B3u (3)
   71    31           9.0884588420         247.3095380653       u       B2u (2)
   72    42           9.0884588420         247.3095380653       u       B3u (3)
   73    80           9.0884588420         247.3095380653       u        Au (8)
   74    61           9.0884588420         247.3095380653       u       B1u (5)
   75    50           9.5025407377         258.5772792868      Hg       B1g (4)
   76    77           9.5025407377         258.5772792868      Hg       B3g (7)
   77    69           9.5025407377         258.5772792868      Hg       B2g (6)
   78    18           9.5025407377         258.5772792868      Hg        Ag (1)
   79    19           9.5025407377         258.5772792868      Hg        Ag (1)
   80    20          29.5665468482         804.5466421000      Ag        Ag (1)


 
  ORBITAL EIGENVALUES ( BETA)  (1H = 27.2113834 eV)

       MO #        E(hartree)               E(eV)           FULLSYM    COMPSYM
       ----   --------------------   --------------------   -------   ---------
    1     1         -15.5864414554        -424.1286342841      Ag        Ag (1)
    2     2          -0.7395784064         -20.1249515707      Ag        Ag (1)
  +++++++++++++++++++++++++++++++++++++++++++++++++++++++++++++++++++++++++++++
    3    21           0.0728710570           1.9829222701     T1u       B2u (2)
    4    51           0.0728710570           1.9829222701     T1u       B1u (5)
    5    32           0.0728710570           1.9829222701     T1u       B3u (3)
    6     3           0.1197070543           3.2573945495      Ag        Ag (1)
    7    52           0.1988072718           5.4098208969     T1u       B1u (5)
    8    22           0.1988072718           5.4098208969     T1u       B2u (2)
    9    33           0.1988072718           5.4098208969     T1u       B3u (3)
   10     4           0.3549387866           9.6583754050      Hg        Ag (1)
   11    70           0.3549387866           9.6583754050      Hg       B2g (7)
   12     5           0.3549387866           9.6583754050      Hg        Ag (1)
   13    43           0.3549387866           9.6583754050      Hg       B1g (4)
   14    62           0.3549387866           9.6583754050      Hg       B3g (6)
   15    23           0.6997116577          19.0401221878     T1u       B2u (2)
   16    53           0.6997116577          19.0401221878     T1u       B1u (5)
   17    34           0.6997116577          19.0401221878     T1u       B3u (3)
   18     6           0.7275760528          19.7983509256      Ag        Ag (1)
   19    54           1.0235473644          27.8521397606       u       B1u (5)
   20    78           1.0235473644          27.8521397606       u        Au (8)
   21    24           1.0235473644          27.8521397606       u       B2u (2)
   22    55           1.0235473644          27.8521397606       u       B1u (5)
   23    25           1.0235473644          27.8521397606       u       B2u (2)
   24    35           1.0235473644          27.8521397606       u       B3u (3)
   25    36           1.0235473644          27.8521397606       u       B3u (3)
   26    63           1.1993613742          32.6362821873      Hg       B3g (6)
   27    44           1.1993613742          32.6362821873      Hg       B1g (4)
   28    71           1.1993613742          32.6362821873      Hg       B2g (7)
   29     7           1.1993613742          32.6362821873      Hg        Ag (1)
   30     8           1.1993613742          32.6362821873      Hg        Ag (1)
   31    37           2.3285455457          63.3629456078     T1u       B3u (3)
   32    56           2.3285455457          63.3629456078     T1u       B1u (5)
   33    26           2.3285455457          63.3629456078     T1u       B2u (2)
   34     9           2.8555439770          77.7033019745       g        Ag (1)
   35    10           2.8555439770          77.7033019745       g        Ag (1)
   36    11           2.8555439770          77.7033019745       g        Ag (1)
   37    72           2.8555439770          77.7033019745       g       B2g (7)
   38    45           2.8555439770          77.7033019745       g       B1g (4)
   39    64           2.8555439770          77.7033019745       g       B3g (6)
   40    46           2.8555439770          77.7033019745       g       B1g (4)
   41    73           2.8555439770          77.7033019745       g       B2g (7)
   42    65           2.8555439770          77.7033019745       g       B3g (6)
   43    12           3.0279941818          82.3959106127      Ag        Ag (1)
   44    27           3.1975250332          87.0090796088       u       B2u (2)
   45    79           3.1975250332          87.0090796088       u        Au (8)
   46    38           3.1975250332          87.0090796088       u       B3u (3)
   47    28           3.1975250332          87.0090796088       u       B2u (2)
   48    39           3.1975250332          87.0090796088       u       B3u (3)
   49    57           3.1975250332          87.0090796088       u       B1u (5)
   50    58           3.1975250332          87.0090796088       u       B1u (5)
   51    13           3.3471123792          91.0795582320      Hg        Ag (1)
   52    14           3.3471123792          91.0795582320      Hg        Ag (1)
   53    47           3.3471123792          91.0795582320      Hg       B1g (4)
   54    66           3.3471123792          91.0795582320      Hg       B3g (6)
   55    74           3.3471123792          91.0795582320      Hg       B2g (7)
   56    67           8.2541943025         224.6080458234       g       B3g (6)
   57    75           8.2541943025         224.6080458234       g       B2g (7)
   58    48           8.2541943025         224.6080458234       g       B1g (4)
   59    15           8.2541943025         224.6080458234       g        Ag (1)
   60    76           8.2541943025         224.6080458234       g       B2g (7)
   61    68           8.2541943025         224.6080458234       g       B3g (6)
   62    49           8.2541943025         224.6080458234       g       B1g (4)
   63    16           8.2541943025         224.6080458234       g        Ag (1)
   64    17           8.2541943025         224.6080458234       g        Ag (1)
   65    40           8.3103472237         226.1360444906     T1u       B3u (3)
   66    59           8.3103472237         226.1360444906     T1u       B1u (5)
   67    29           8.3103472237         226.1360444906     T1u       B2u (2)
   68    30           9.1865754500         249.9794267023       u       B2u (2)
   69    60           9.1865754500         249.9794267023       u       B1u (5)
   70    41           9.1865754500         249.9794267023       u       B3u (3)
   71    42           9.1865754500         249.9794267023       u       B3u (3)
   72    80           9.1865754500         249.9794267023       u        Au (8)
   73    31           9.1865754500         249.9794267023       u       B2u (2)
   74    61           9.1865754500         249.9794267023       u       B1u (5)
   75    50           9.6227804150         261.8491672479      Hg       B1g (4)
   76    69           9.6227804150         261.8491672479      Hg       B3g (6)
   77    77           9.6227804150         261.8491672479      Hg       B2g (7)
   78    18           9.6227804150         261.8491672479      Hg        Ag (1)
   79    19           9.6227804150         261.8491672479      Hg        Ag (1)
   80    20          29.6201010771         806.0039267547      Ag        Ag (1)


  VSCF finished.

 @CHECKOUT-I, Total execution time (CPU/WALL):        0.88/       0.92 seconds.
--executable xvscf finished with status     0 in        0.95 seconds (walltime).
 --invoking executable--
/cvmfs/restricted.computecanada.ca/easybuild/software/2020/avx2/Compiler/intel2020/cfour/2.1/bin/xvtran
 @GETMEM-I,  Allocated   19073 MB of main memory.
  Full UHF integral transformation
  The following   1 alpha MOs will be dropped.
    1
  There are  79 active alpha molecular orbitals.
  The following   1 beta MOs will be dropped.
    1
  There are  79 active beta molecular orbitals.
  Transformation of IIII integrals :
  2 passes through the AO integral file were required.
       19306 AO integrals were read.
       26797 MO integrals (Spin case AAAA) were written to HF2AA.
       26797 MO integrals (Spin case BBBB) were written to HF2BB.
       53092 MO integrals (Spin case AABB) were written to HF2AB.
  Transformation of IIJJ integrals :
  2 passes through the AO integral file were required.
       82315 AO integrals were read.
       99456 MO integrals (Spin case AAAA) were written to HF2AA.
       99456 MO integrals (Spin case BBBB) were written to HF2BB.
      198912 MO integrals (Spin case AABB) were written to HF2AB.
  Transformation of IJIJ integrals :
  2 passes through the AO integral file were required.
      132000 AO integrals were read.
      168582 MO integrals (Spin case AAAA) were written to HF2AA.
      168582 MO integrals (Spin case BBBB) were written to HF2BB.
      334506 MO integrals (Spin case AABB) were written to HF2AB.
  Transformation of IJKL integrals :
  2 passes through the AO integral file were required.
      286272 AO integrals were read.
      340539 MO integrals (Spin case AAAA) were written to HF2AA.
      340539 MO integrals (Spin case BBBB) were written to HF2BB.
      681078 MO integrals (Spin case AABB) were written to HF2AB.
  Summary of active molecular orbitals: 
------------------------------------------------------------------------
                         * Spin case alpha *
 
  Index      Eigenvalue    Symmetry    Index      Eigenvalue    Symmetry
------------------------------------------------------------------------
     1        -1.1512476        1        41         9.0884588        3
     2        -0.5675776        2        42         9.0884588        3
     3        -0.5675776        3        43         0.3390655        4
     4        -0.5675776        5        44         1.0988628        4
     5         0.1058363        1        45         2.8276997        4
     6         0.3390655        1        46         2.8276997        4
     7         0.3390655        1        47         3.1917718        4
     8         0.6647996        1        48         8.1919112        4
     9         1.0988628        1        49         8.1919112        4
    10         1.0988628        1        50         9.5025407        4
    11         2.8276997        1        51         0.1121042        5
    12         2.8276997        1        52         0.5732062        5
    13         2.8276997        1        53         1.0058609        5
    14         2.9189638        1        54         1.0058609        5
    15         3.1917718        1        55         2.1822547        5
    16         3.1917718        1        56         3.1264511        5
    17         8.1919112        1        57         3.1264511        5
    18         8.1919112        1        58         8.2055981        5
    19         8.1919112        1        59         9.0884588        5
    20         9.5025407        1        60         9.0884588        5
    21         9.5025407        1        61         0.3390655        6
    22        29.5665468        1        62         1.0988628        6
    23         0.1121042        2        63         2.8276997        6
    24         0.5732062        2        64         2.8276997        6
    25         1.0058609        2        65         3.1917718        6
    26         1.0058609        2        66         8.1919112        6
    27         2.1822547        2        67         8.1919112        6
    28         3.1264511        2        68         9.5025407        6
    29         3.1264511        2        69         0.3390655        7
    30         8.2055981        2        70         1.0988628        7
    31         9.0884588        2        71         2.8276997        7
    32         9.0884588        2        72         2.8276997        7
    33         0.1121042        3        73         3.1917718        7
    34         0.5732062        3        74         8.1919112        7
    35         1.0058609        3        75         8.1919112        7
    36         1.0058609        3        76         9.5025407        7
    37         2.1822547        3        77         1.0058609        8
    38         3.1264511        3        78         3.1264511        8
    39         3.1264511        3        79         9.0884588        8
    40         8.2055981        3
------------------------------------------------------------------------
------------------------------------------------------------------------
                         * Spin case beta *
 
  Index      Eigenvalue    Symmetry    Index      Eigenvalue    Symmetry
------------------------------------------------------------------------
     1        -0.7395784        1        41         9.1865754        3
     2         0.1197071        1        42         0.3549388        4
     3         0.3549388        1        43         1.1993614        4
     4         0.3549388        1        44         2.8555440        4
     5         0.7275761        1        45         2.8555440        4
     6         1.1993614        1        46         3.3471124        4
     7         1.1993614        1        47         8.2541943        4
     8         2.8555440        1        48         8.2541943        4
     9         2.8555440        1        49         9.6227804        4
    10         2.8555440        1        50         0.0728711        5
    11         3.0279942        1        51         0.1988073        5
    12         3.3471124        1        52         0.6997117        5
    13         3.3471124        1        53         1.0235474        5
    14         8.2541943        1        54         1.0235474        5
    15         8.2541943        1        55         2.3285455        5
    16         8.2541943        1        56         3.1975250        5
    17         9.6227804        1        57         3.1975250        5
    18         9.6227804        1        58         8.3103472        5
    19        29.6201011        1        59         9.1865754        5
    20         0.0728711        2        60         9.1865754        5
    21         0.1988073        2        61         0.3549388        6
    22         0.6997117        2        62         1.1993614        6
    23         1.0235474        2        63         2.8555440        6
    24         1.0235474        2        64         2.8555440        6
    25         2.3285455        2        65         3.3471124        6
    26         3.1975250        2        66         8.2541943        6
    27         3.1975250        2        67         8.2541943        6
    28         8.3103472        2        68         9.6227804        6
    29         9.1865754        2        69         0.3549388        7
    30         9.1865754        2        70         1.1993614        7
    31         0.0728711        3        71         2.8555440        7
    32         0.1988073        3        72         2.8555440        7
    33         0.6997117        3        73         3.3471124        7
    34         1.0235474        3        74         8.2541943        7
    35         1.0235474        3        75         8.2541943        7
    36         2.3285455        3        76         9.6227804        7
    37         3.1975250        3        77         1.0235474        8
    38         3.1975250        3        78         3.1975250        8
    39         8.3103472        3        79         9.1865754        8
    40         9.1865754        3
------------------------------------------------------------------------
  -1.15124755254863      -0.567577605359295      -0.567577605359294     
 -0.567577605359296       0.105836274965112       0.339065456656157     
  0.339065456656161       0.664799611148666        1.09886280557133     
   1.09886280557133        2.82769974313450        2.82769974313450     
   2.82769974313451        2.91896380541269        3.19177181529494     
   3.19177181529495        8.19191121506191        8.19191121506193     
   8.19191121506194        9.50254073766819        9.50254073766824     
   29.5665468481830       0.112104152591120       0.573206246968418     
   1.00586093642002        1.00586093642002        2.18225474166018     
   3.12645107011786        3.12645107011787        8.20559812526911     
   9.08845884201953        9.08845884201953       0.112104152591120     
  0.573206246968423        1.00586093642002        1.00586093642002     
   2.18225474166018        3.12645107011787        3.12645107011787     
   8.20559812526938        9.08845884201953        9.08845884201953     
  0.339065456656157        1.09886280557132        2.82769974313451     
   2.82769974313451        3.19177181529496        8.19191121506192     
   8.19191121506193        9.50254073766816       0.112104152591121     
  0.573206246968415        1.00586093642002        1.00586093642002     
   2.18225474166018        3.12645107011787        3.12645107011787     
   8.20559812526916        9.08845884201953        9.08845884201955     
  0.339065456656157        1.09886280557132        2.82769974313451     
   2.82769974313451        3.19177181529497        8.19191121506192     
   8.19191121506193        9.50254073766817       0.339065456656153     
   1.09886280557132        2.82769974313451        2.82769974313451     
   3.19177181529496        8.19191121506192        8.19191121506192     
   9.50254073766817        1.00586093642002        3.12645107011787     
   9.08845884201954     
 -0.739578406390715       0.119707054271655       0.354938786572353     
  0.354938786572360       0.727576052809186        1.19936137415587     
   1.19936137415588        2.85554397702811        2.85554397702812     
   2.85554397702812        3.02799418175543        3.34711237915324     
   3.34711237915325        8.25419430249953        8.25419430249954     
   8.25419430249955        9.62278041504892        9.62278041504898     
   29.6201010770632       7.287105697287162E-002  0.198807271844969     
  0.699711657725120        1.02354736439617        1.02354736439617     
   2.32854554567732        3.19752503317467        3.19752503317468     
   8.31034722367651        9.18657544997631        9.18657544997633     
  7.287105697287270E-002  0.198807271844969       0.699711657725126     
   1.02354736439617        1.02354736439617        2.32854554567730     
   3.19752503317468        3.19752503317468        8.31034722367624     
   9.18657544997632        9.18657544997632       0.354938786572360     
   1.19936137415586        2.85554397702812        2.85554397702812     
   3.34711237915325        8.25419430249953        8.25419430249954     
   9.62278041504889       7.287105697287193E-002  0.198807271844969     
  0.699711657725122        1.02354736439617        1.02354736439617     
   2.32854554567731        3.19752503317469        3.19752503317469     
   8.31034722367626        9.18657544997632        9.18657544997635     
  0.354938786572360        1.19936137415586        2.85554397702812     
   2.85554397702812        3.34711237915326        8.25419430249953     
   8.25419430249953        9.62278041504889       0.354938786572360     
   1.19936137415587        2.85554397702812        2.85554397702812     
   3.34711237915327        8.25419430249953        8.25419430249953     
   9.62278041504890        1.02354736439617        3.19752503317468     
   9.18657544997632     
 @CHECKOUT-I, Total execution time (CPU/WALL):        0.55/     123.03 seconds.
--executable xvtran finished with status     0 in      123.06 seconds (walltime).
 --invoking executable--
/cvmfs/restricted.computecanada.ca/easybuild/software/2020/avx2/Compiler/intel2020/cfour/2.1/bin/xintprc
 @GETMEM-I,  Allocated   19073 MB of main memory.
  @GMOIAA-I, Processing MO integrals for spin case AA.
  @GMOIAA-I, Generation of integral list completed.
                      TYPE                NUMBER
                      ----               --------
                      PPPP                516003
                      PPPH                109020
                      PPHH                  6012
                      PHPH                  3906
                      PHHH                   417
                      HHHH                    16

                     TOTAL                635374
  @GMOIAA-I, Processing MO integrals for spin case BB.
  @GMOIAA-I, Generation of integral list completed.
                      TYPE                NUMBER
                      ----               --------
                      PPPP                602919
                      PPPH                 31470
                      PPHH                   483
                      PHPH                   483
                      PHHH                    18
                      HHHH                     1

                     TOTAL                635374
  @GMOIAB-I, Processing MO integrals for spin case AB.
                      TYPE                NUMBER
                      ----               --------
                      PPPP               1112526
                      PPPH1H              117972
                      PPPH2H               29106
                      PPHH                  3141
                      PHPH1P                 450
                      PHPH2P                4212
                      PHHH1P                  48
                      PHHH2P                 129
                      HHHH                     4

                     TOTAL               1267588

  @FORMT2-I, Second-order MP correlation energies:
  @FORMT2-I, Singles contribution will be calculated.
            ------------------------------------------------
            E(SCF)                  =    -54.400224914196 a.u.
            E2(AA)                  =     -0.031436871714 a.u.
            E2(BB)                  =      0.000000000000 a.u.
            E2(AB)                  =     -0.074231886408 a.u.
            E2(SINGLE)              =     -0.002129592796 a.u.
            E2(TOT)                 =     -0.105668758122 a.u.
            Total MP2 energy        =    -54.508023265114 a.u.
            ------------------------------------------------
            ----------------------------------------------
                     Projected spin multiplicities: 
            ----------------------------------------------
             <0|S^2|0>                  =    3.7500000000.
             <0|S^2 T2|0>               =   -0.0000000000.
             Projected <0|S^2 exp(T)|0> =    3.7500000000.
             Approximate spin mult.     =    4.0000000000.
            ----------------------------------------------
   Largest T2 amplitudes for spin case AA:
   i   j   a   b             i   j   a   b             i   j   a   b
-----------------------------------------------------------------------------
[  4   2  52  24]-0.01872 [  3   2  34  24]-0.01872 [  4   3  52  34]-0.01872
[  4   3  70  10] 0.01574 [  3   2  44   9]-0.01560 [  4   2  62   9]-0.01166
[  3   2  37  24]-0.01155 [  4   3  55  34]-0.01155 [  4   2  55  24]-0.01155
[  4   3  52  37]-0.01155 [  3   2  34  27]-0.01155 [  4   2  52  27]-0.01155
[  4   2  62  10] 0.01128 [  4   3  55  37]-0.01115 [  3   2  37  27]-0.01115
-----------------------------------------------------------------------------
   Norm of T2AA vector (     2106 symmetry allowed elements):  0.0859825295.
-----------------------------------------------------------------------------
   Largest T2 amplitudes for spin case AB:
       _       _                 _       _                 _       _
   i   j   a   b             i   j   a   b             i   j   a   b
-----------------------------------------------------------------------------
[  2   1   9  21] 0.02138 [  4   1  10  51] 0.02120 [  4   1  70  32] 0.01909
[  4   1  62  21] 0.01909 [  2   1  44  32] 0.01909 [  3   1  44  21] 0.01909
[  3   1  70  51] 0.01909 [  2   1  62  51] 0.01909 [  2   1  24   5]-0.01897
[  3   1  34   5]-0.01897 [  4   1  52   5]-0.01897 [  3   1  10  32]-0.01584
[  3   1   9  32]-0.01533 [  2   1   9  20]-0.01488 [  4   1  10  50]-0.01474
-----------------------------------------------------------------------------
   Norm of T2AB vector (     3141 symmetry allowed elements):  0.1370519457.
-----------------------------------------------------------------------------
 @CHECKOUT-I, Total execution time (CPU/WALL):        1.21/      55.70 seconds.
--executable xintprc finished with status     0 in       55.76 seconds (walltime).
  calling xvcc 
 --invoking executable--
/cvmfs/restricted.computecanada.ca/easybuild/software/2020/avx2/Compiler/intel2020/cfour/2.1/bin/xvcc
 @GETMEM-I,  Allocated   19073 MB of main memory.
   CCSD(T) energy will be calculated.
   The reference state is a ROHF wave function.
   The total correlation energy is -0.107847090628 a.u.
   The total correlation energy is -0.119021106215 a.u.
  Convergence information after     1 iterations: 
  Largest element of residual vector :  0.45549556E-02.
  Largest element of DIIS residual   :  0.45549556E-02.
   The total correlation energy is -0.121283499828 a.u.
  Convergence information after     2 iterations: 
  Largest element of residual vector :  0.14251270E-02.
  Largest element of DIIS residual   : -0.11451808E-02.
   The total correlation energy is -0.122094196229 a.u.
  Convergence information after     3 iterations: 
  Largest element of residual vector :  0.59247858E-03.
  Largest element of DIIS residual   :  0.62010647E-03.
   The total correlation energy is -0.122197911465 a.u.
  Convergence information after     4 iterations: 
  Largest element of residual vector :  0.29165657E-03.
  Largest element of DIIS residual   :  0.13795885E-03.
   The total correlation energy is -0.122206466705 a.u.
  Convergence information after     5 iterations: 
  Largest element of residual vector :  0.86300496E-04.
  Largest element of DIIS residual   :  0.31050497E-04.
   The total correlation energy is -0.122205280307 a.u.
  Convergence information after     6 iterations: 
  Largest element of residual vector :  0.18482301E-04.
  Largest element of DIIS residual   :  0.17952691E-04.
   The total correlation energy is -0.122206142581 a.u.
  Convergence information after     7 iterations: 
  Largest element of residual vector :  0.54021185E-05.
  Largest element of DIIS residual   :  0.27499048E-05.
   The total correlation energy is -0.122206247480 a.u.
  Convergence information after     8 iterations: 
  Largest element of residual vector :  0.11429717E-05.
  Largest element of DIIS residual   :  0.59301384E-06.
   The total correlation energy is -0.122206183346 a.u.
  Convergence information after     9 iterations: 
  Largest element of residual vector :  0.29810858E-06.
  Largest element of DIIS residual   :  0.14980837E-06.
   The total correlation energy is -0.122206156729 a.u.
  Convergence information after    10 iterations: 
  Largest element of residual vector :  0.73560092E-07.
  Largest element of DIIS residual   : -0.42027930E-07.
   The total correlation energy is -0.122206151385 a.u.
  Convergence information after    11 iterations: 
  Largest element of residual vector :  0.21652973E-07.
  Largest element of DIIS residual   : -0.10464310E-07.
   The total correlation energy is -0.122206150808 a.u.
  Convergence information after    12 iterations: 
  Largest element of residual vector : -0.66644344E-08.
  Largest element of DIIS residual   : -0.32752255E-08.
   The total correlation energy is -0.122206151092 a.u.
  Convergence information after    13 iterations: 
  Largest element of residual vector : -0.21306558E-08.
  Largest element of DIIS residual   : -0.11829259E-08.
   The total correlation energy is -0.122206151072 a.u.
  Convergence information after    14 iterations: 
  Largest element of residual vector : -0.82148303E-09.
  Largest element of DIIS residual   : -0.28286623E-09.
   The total correlation energy is -0.122206151031 a.u.
  Convergence information after    15 iterations: 
  Largest element of residual vector : -0.14827674E-09.
  Largest element of DIIS residual   : -0.13910165E-09.
   The total correlation energy is -0.122206151022 a.u.
  Convergence information after    16 iterations: 
  Largest element of residual vector : -0.45491093E-10.
  Largest element of DIIS residual   : -0.17323924E-10.
  Amplitude equations converged in    16iterations.
   The total correlation energy is -0.122206151021 a.u.
   The CC iterations have converged.

            ----------------------------------------------
                     Projected spin multiplicities: 
            ----------------------------------------------
             <0|S^2|0>                  =    3.7500000000.
             <0|S^2 (T2+T1**2) |0>      =   -0.0000000000.
             <0|S^2 T1|0>               =   -0.0000000000.
             Projected <0|S^2 exp(T)|0> =    3.7500000000.
             Approximate spin mult.     =    4.0000000000.
            ----------------------------------------------
   Largest T1 amplitudes for spin case AA:
   i       a                 i       a                 i       a    
-----------------------------------------------------------------------------
[  1       8    ] 0.02254 [  1       5    ]-0.01599 [  1      14    ]-0.00722
[  3      33    ]-0.00400 [  4      51    ]-0.00400 [  2      23    ]-0.00400
[  4      55    ] 0.00339 [  2      27    ] 0.00339 [  3      37    ] 0.00339
[  4      58    ] 0.00053 [  2      30    ] 0.00053 [  3      40    ] 0.00053
[  3      34    ]-0.00027 [  4      52    ]-0.00027 [  2      24    ]-0.00027
-----------------------------------------------------------------------------
   Norm of T1AA vector (       48 symmetry allowed elements):  0.0299852039.
-----------------------------------------------------------------------------
   Largest T2 amplitudes for spin case AA:
   i   j   a   b             i   j   a   b             i   j   a   b
-----------------------------------------------------------------------------
[  4   2  52  24]-0.02203 [  3   2  34  24]-0.02203 [  4   3  52  34]-0.02203
[  4   3  70  10] 0.01601 [  3   2  44   9]-0.01587 [  3   2  37  24]-0.01353
[  4   3  55  34]-0.01353 [  4   2  55  24]-0.01353 [  3   2  34  27]-0.01353
[  4   2  52  27]-0.01353 [  4   3  52  37]-0.01353 [  3   1  34   8]-0.01253
[  2   1  24   8]-0.01253 [  4   1  52   8]-0.01253 [  4   2  55  27]-0.01238
-----------------------------------------------------------------------------
   Norm of T2AA vector (     2106 symmetry allowed elements):  0.0948486859.
-----------------------------------------------------------------------------
   Largest T1 amplitudes for spin case BB:
   i       a                 i       a                 i       a    
-----------------------------------------------------------------------------
[  1       2    ] 0.02637 [  1       5    ]-0.02555 [  1      11    ] 0.00233
[  1      19    ] 0.00039 [  1       3    ]-0.00000 [  1      16    ] 0.00000
[  1      12    ] 0.00000 [  1       9    ] 0.00000 [  1      18    ] 0.00000
[  1      13    ]-0.00000 [  1      15    ]-0.00000 [  1      10    ]-0.00000
[  1       8    ]-0.00000 [  1       6    ]-0.00000 [  1      14    ] 0.00000
-----------------------------------------------------------------------------
   Norm of T1BB vector (       18 symmetry allowed elements):  0.0367890014.
-----------------------------------------------------------------------------
   Largest T2 amplitudes for spin case AB:
       _       _                 _       _                 _       _
   i   j   a   b             i   j   a   b             i   j   a   b
-----------------------------------------------------------------------------
[  2   1   9  21] 0.02756 [  4   1  10  51] 0.02732 [  4   1  62  21] 0.02461
[  3   1  44  21] 0.02461 [  2   1  62  51] 0.02461 [  3   1  70  51] 0.02461
[  4   1  70  32] 0.02461 [  2   1  44  32] 0.02461 [  2   1  24   5]-0.02052
[  3   1  34   5]-0.02052 [  4   1  52   5]-0.02052 [  3   1  10  32]-0.02042
[  3   1   9  32]-0.01976 [  2   1   9  20]-0.01916 [  4   1  10  50]-0.01899
-----------------------------------------------------------------------------
   Norm of T2AB vector (     3141 symmetry allowed elements):  0.1695466138.
-----------------------------------------------------------------------------
       Summary of iterative solution of CC equations 
      -----------------------------------------------------------
                       Correlation           Total
       Iteration         Energy              Energy
      -----------------------------------------------------------
            0        -0.107847090628     -54.508072004823  DIIS 
            1        -0.119021106215     -54.519246020411  DIIS 
            2        -0.121283499828     -54.521508414024  DIIS 
            3        -0.122094196229     -54.522319110425  DIIS 
            4        -0.122197911465     -54.522422825661  DIIS 
            5        -0.122206466705     -54.522431380901  DIIS 
            6        -0.122205280307     -54.522430194503  DIIS 
            7        -0.122206142581     -54.522431056776  DIIS 
            8        -0.122206247480     -54.522431161675  DIIS 
            9        -0.122206183346     -54.522431097542  DIIS 
           10        -0.122206156729     -54.522431070925  DIIS 
           11        -0.122206151385     -54.522431065581  DIIS 
           12        -0.122206150808     -54.522431065003  DIIS 
           13        -0.122206151092     -54.522431065288  DIIS 
           14        -0.122206151072     -54.522431065267  DIIS 
           15        -0.122206151031     -54.522431065226  DIIS 
           16        -0.122206151021     -54.522431065217  DIIS 
      -----------------------------------------------------------
      A miracle has come to pass. The CC iterations have converged.
 @TRPS2-I, E4ST A   -0.000022845752557
 @TRPS2-I, E4ST B    0.000014635333678
        E(CCSD)           =     -54.522431065217
        E(CCSD(T))        =     -54.525377355083
 @CHECKOUT-I, Total execution time (CPU/WALL):        0.63/       0.84 seconds.
--executable xvcc finished with status     0 in        0.88 seconds (walltime).
  The final electronic energy is       -54.525377355082824 a.u. 
  This computation required                          196.13 seconds (walltime).
