 --invoking executable--
/home/nike/cfour/cfour_v2.00beta/bin/xjoda


   *************************************************************************
         <<<     CCCCCC     CCCCCC   |||     CCCCCC     CCCCCC   >>>
       <<<      CCC        CCC       |||    CCC        CCC         >>>
      <<<      CCC        CCC        |||   CCC        CCC            >>>
    <<<        CCC        CCC        |||   CCC        CCC              >>>
      <<<      CCC        CCC        |||   CCC        CCC            >>>
       <<<      CCC        CCC       |||    CCC        CCC         >>>
         <<<     CCCCCC     CCCCCC   |||     CCCCCC     CCCCCC   >>>
   *************************************************************************

     ****************************************************************
     * CFOUR Coupled-Cluster techniques for Computational Chemistry *
     ****************************************************************
 

   Department of Chemistry                Institut fuer Physikalische Chemie
   University of Texas at Austin          Universitaet Mainz
   Austin, TX  78712, USA                 D-55099 Mainz, Germany
 
                       Version 2.00beta
 
                     gra825                                            
                     Mon Jul 26 18:19:03 EDT 2021                      
                     integer*8 version is running
 
********************************************************************************
*                          Input from ZMAT file                                *
********************************************************************************
TITLE                                                                           
C  1.2247  0.0000 0.0000                                                        
C -1.2247  0.0000 0.0000                                                        
C  0.0000 -0.7286 0.0000                                                        
C  0.0000  0.7286 0.0000                                                        
                                                                                
*ACES2(CALC=CCSD(T)                                                             
#UNITS=BOHR                                                                     
UNITS=ANGSTROM                                                                  
#GEOM=2.2810272*10/5.29177210903_in2013JMSLeRoy                                 
COORD=CARTESIAN                                                                 
#COORD=INTERNAL                                                                 
PRINT=4                                                                         
JODA_PRINT=4                                                                    
INPUT_MRCC=OFF                                                                  
CC_PROG=MRCC                                                                    
FROZEN_CORE=ON                                                                  
#DROPMO=1>4                                                                     
CONTRACTION=GENERAL                                                             
#CONTRACTION=SEGMENTED                                                          
RELATIVISTIC=OFF                                                                
#EXCITE=EOMEE                                                                   
#ESTATE_CONV=5                                                                  
#ESTATE_SYM=2/2/2/2/2/2/2/2                                                     
XFORM_TOL=18                                                                    
SAVE_INTS=ON                                                                    
SCF_EXPORDER=6                                                                  
SCF_EXPSTART=5                                                                  
#SCF_DAMPING=1000                                                               
SCF_EXTRAPOLATION=ON                                                            
SCF_CONV=11                                                                     
SCF_MAXCYC=9999                                                                 
CC_CONV=9                                                                       
CC_MAXCYC=999                                                                   
T3_EXTRAPOL=ON                                                                  
REFERENCE=RHF                                                                   
CHARGE=+0                                                                       
MULT=1                                                                          
ABCDTYPE=STANDARD                                                               
#OCCUPATION=3-2-2-0-1-0-0-0/3-1-1-0-1-0-0-0                                     
MEM=4                                                                           
MEM_UNIT=GB                                                                     
BASIS=SPECIAL)                                                                  
                                                                                
C:VDZ-EMSL                                                                      
C:VDZ-EMSL                                                                      
C:VDZ-EMSL                                                                      
C:VDZ-EMSL                                                                      
                                                                                
********************************************************************************
  @GTFLGS-W, Keyword #UNITS not known and is ignored.
  @GTFLGS-W, Keyword #GEOM not known and is ignored.
  @GTFLGS-W, Keyword #COORD not known and is ignored.
  @GTFLGS-W, Keyword #DROPMO not known and is ignored.
  @GTFLGS-W, Keyword #CONTRACTION not known and is ignored.
  @GTFLGS-W, Keyword #EXCITE not known and is ignored.
  @GTFLGS-W, Keyword #ESTATE_CONV not known and is ignored.
  @GTFLGS-W, Keyword #ESTATE_SYM not known and is ignored.
  @GTFLGS-W, Keyword #SCF_DAMPING not known and is ignored.
  @GTFLGS-W, Keyword #OCCUPATION not known and is ignored.
    -------------------------------------------------------------------
                    CFOUR Control Parameters 
    -------------------------------------------------------------------
        External           Internal           Value            Units
          Name               Name
    -------------------------------------------------------------------
       ABCDTYPE             IABCDT         STANDARD     [  0]   ***   
       ANHARMONIC           IANHAR         OFF          [  0]   ***   
       ANH_ALGORIT          IANALG         STANDARD     [  0]   ***   
       ANH_DERIVAT          IANDER         SECOND       [  1]   ***   
       ANH_STEPSIZ          ICUBST             50000          x 10-6  
       ANH_SYMMETR          IANHSM         ABELIAN      [  0]   ***   
       AO_LADDERS           IAOLAD         SINGLEPASS   [  1]   ***   
       BASIS                IBASIS         SPECIAL      [  0]   ***   
       BREIT                IBREIT         OFF          [  0]   ***   
       BRUCK_CONV           IBRTOL          10D-  4             ***   
       BRUECKNER            IBRKNR             OFF      [  0]   ***   
       BUFFERSIZE           IBUFFS            600               ***   
       CACHE_RECS           ICHREC             10               ***   
       CALCLEVEL            ICLLVL           CCSD(T)    [ 22]   ***   
       CCORBOPT             ICCORB             OFF      [  0] x 0.01  
       CC_CONV              ICCCNV          10D-  9             ***   
       CC_EXPORDER          ICCEOR              5               ***   
       CC_EXTRAPOL          ICCEXT             DIIS     [  1]   ***   
       CC_MAXCYC            ICCCYC            999              cycles 
       CC_PROGRAM           ICCPRO         MRCC         [  2]   ***   
       CHARGE               ICHRGE              0               ***   
       CHOLESKY             ICHOLE         OFF          [  0]   ***   
       CIS_CONV             ICISTL              5               ***   
       COMM_SIZE            IPSIZE            ***               ***   
       CONSTANT             ICONST         OLD          [  1]   ***   
       CONTINUUM            ICONTU         NONE         [  0]   ***   
       CONTRACTION          ICNTYP          GENERAL     [  1]   ***   
       COORDINATES          ICOORD         CARTESIAN    [  1]   ***   
       CPHF_CONVER          ICPHFT          10D- 16             ***   
       CPHF_MAXCYC          ICPHFC             64              cycles 
       CUBIC                ICUBIC         OFF          [  0]   ***   
       CURVILINEAR          ICURVY            OFF       [  0]   ***   
       DBOC                 IDBOC          OFF          [  0]   ***   
       DCT                  IDCT           OFF          [  0]   ***   
       DERIV_LEV            IDRLVL            ZERO      [  0]   ***   
       DIAG_MRCC            IEOMST          10D-  0             ***   
       DIFF_TYPE            IDIFTY         RELAXED      [  0]   ***   
       DIRECT               IDIRCT         OFF          [  0]   ***   
       DROPMO               IDRPMO      NONE         
       ECP                  IECP           OFF          [  0]   ***   
       EIGENVECTOR          IVEC                1               ***   
       EL_ANHARM            IELANH         OFF          [  0]   ***   
       EOMFOLLOW            IEOMSR         ENERGY       [  0]   ***   
       EOM_MRCC             IMRCCE         NEW          [  1]   ***   
       EOM_NONIT            EOMNON         OFF          [  0]   ***   
       EOM_NSING            IEOMSI          10D-  0             ***   
       EOM_NSTATES          IMRCCD         DAVIDSON     [  0]   ***   
       EOM_NTRIP            IEOMTR          10D-  0             ***   
       EOM_ORDER            IEXORD         ENERGY       [  0]   ***   
       ESTATE_CONV          IEXTOL          10D-  5             ***   
       ESTATE_DIAG          IEXDIG         ITERATIVE    [  0]   ***   
       ESTATE_LOCK          IESLOC         ON           [  1]   ***   
       ESTATE_MAXC          IEXMXC             20               ***   
       ESTATE_PROP          IEXPRP         OFF          [  0]   ***   
       EVAL_HESS            IRECAL              0            # of cyc.
       EXCITATION           IEXCIT              0               ***   
       EXCITE               IEXCIT         NONE         [  0]   ***   
       FCGRADNEW            IFCGNW         OFF          [  0]   ***   
       FC_FIELD             IFINFC              0             x 10-6  
       FD_CALTYPE           IFDCAL         GRADONLY     [  0]   ***   
       FD_PROJECT           IFDPRJ         OFF          [  1]   ***   
       FD_STEPSIZE          IDISFD              0            10-4 bohr
       FD_USEGROUP          IFDGRP         FULL         [  0]   ***   
       FILE_RECSIZ          IFLREC              4096           words  
       FINITE_PERT          IFIPER              0             x 10-6  
       FIXGEOM              IFIXGM         OFF          [  0]   ***   
       FOCK                 IFOCK          AO           [  1]   ***   
       FREQ_ALGORI          IVIALG         STANDARD     [  0]   ***   
       FROZEN_CORE          IFROCO         ON           [  1]   ***   
       FROZEN_VIRT          IFROVI         OFF          [  0]   ***   
       GAMMA_ABCD           IGABCD         STORE        [  0]   ***   
       GAMMA_ABCI           IGABCI         STORE        [  0]   ***   
       GENBAS_1             IGNBS1              0               ***   
       GENBAS_2             IGNBS2              0               ***   
       GENBAS_3             IGNBS3              0               ***   
       GENBAS_4             IGNBS4              0               ***   
       GEO_CONV             ICONTL              5              H/bohr 
       GEO_MAXCYC           IOPTCY             50               ***   
       GEO_MAXSTEP          IMXSTP            300            millibohr
       GEO_METHOD           INR            SINGLE_POINT [  5]   ***   
       GIAO                 IGIAO          OFF          [  1]   ***   
       GIMIC                IGIMIC         OFF          [  0]   ***   
       GRID                 IGRID          OFF          [  0]   ***   
       GRID_ALGO            IGALGO         SERIAL       [  0]   ***   
       GUESS                IGUESS            MOREAD    [  0]   ***   
       HBAR                 IHBAR              OFF      [  0]   ***   
       HESS_TYPE            IHESTP         SCF          [  0]   ***   
       HF2_FILE             IHF2Fl         USE          [  1]   ***   
       HFSTABILITY          ISTABL         OFF          [  0]   ***   
       INCORE               INCORE             OFF      [  0]   ***   
       INPUT_MRCC           IMRCC          OFF          [  0]   ***   
       INTEGRALS            INTTYP             VMOL     [  1]   ***   
       JODA_PRINT           IJPRNT              4               ***   
       LINDEP_TOL           ILINDP              8               ***   
       LINEQ_CONV           IZTACN          10D-  7           cycles  
       LINEQ_EXPOR          ILMAXD              5               ***   
       LINEQ_MAXCY          ILMAXC             50               ***   
       LINEQ_TYPE           ILTYPE         DIIS         [  1]   ***   
       LOCK_ORBOCC          ILOCOC             OFF      [  0]   ***   
       MEMORY_SIZE          IMEMSZ         500000000           words  
       MEM_UNIT             IMEMU          GB           [  3]   ***   
       MRCC                 IMRCCC         OFF          [  0]   ***   
       MULTIPLICTY          IMULTP              1               ***   
       NEGEVAL              IDIE             ABORT      [  0]   ***   
       NEWNORM              INEWNO         OFF          [  0]   ***   
       NON-HF               INONHF             OFF      [  0]   ***   
       NTOP_TAMP            ITOPT2             15               ***   
       NUC_MODEL            INUCMO         POINT        [  0]   ***   
       OCCUPATION           IOCCU   ESTIMATED BY SCF 
       OPEN-SHELL           IOPEN          SPIN-ORBITAL [  0]   ***   
       ORBITALS             IORBTP           STANDARD   [  0]   ***   
       PARALLEL             IPARAL         ON           [  1]   ***   
       PARA_INT             IPINTS         ON           [  1]   ***   
       PARA_PRINT           IPPRIN              0               ***   
       PERT_ORB             IPTORB         STANDARD     [  0]   ***   
       POINTS               IGRDFD              0               ***   
       PRINT                IPRNT               4               ***   
       PROPS                IPROPS             OFF      [  0]   ***   
       PROP_INTEGR          IINTYP         INTERNAL     [  0]   ***   
       PSI                  IPSI           OFF          [  0]   ***   
       QUARTIC              IQUART         OFF          [  0]   ***   
       RAMAN_INT            IRAMIN         OFF          [  0]   ***   
       RAMAN_ORB            IRAMRE         UNRELAXED    [  0]   ***   
       RDO                  IRDOFM             OFF      [  0]   ***   
       REFERENCE            IREFNC             RHF      [  0]   ***   
       RELATIVIST           IRELAT         OFF          [  0]   ***   
       RELAX_DENS           IRDENS             OFF      [  0]   ***   
       RESET_FLAGS          IRESET             OFF      [  0]   ***   
       RESTART_CC           ICCRES         OFF          [  0]   ***   
       ROT_EVEC             ROTVEC              0               ***   
       SAVE_INTS            ISVINT              ON      [  1]   ***   
       SCALE_ON             ISTCRT              0               ***   
       SCF_CONV             ISCFCV          10D- 11             ***   
       SCF_DAMPING          IDAMP               0             x 10-3  
       SCF_EXPORDE          IRPPOR              6               ***   
       SCF_EXPSTAR          IRPPLS              5               ***   
       SCF_EXTRAPO          IRPP                ON      [  1]   ***   
       SCF_MAXCYC           ISCFCY            ***              cycles 
       SCF_NOSTOP           ISCFST         OFF          [  0]   ***   
       SCF_PRINT            ISCFPR              0               ***   
       SD_FIELD             IFINSD              0             x 10-6  
       SEQUENCE             ISEQUE         OFF          [  0]   ***   
       SOPERT               IPERSO         OFF          [  0]   ***   
       SPHERICAL            IDFGHI             ON       [  1]   ***   
       SPINORBIT            ISOCAL         OFF          [  0]   ***   
       SPINROTATIO          ISRCON         OFF          [  0]   ***   
       SPIN_FLIP            ISPFLP         OFF          [  0]   ***   
       SPIN_ORBIT           ISPORB         OFF          [  0]   ***   
       SPIN_SCAL            ISCSMP         OFF          [  0]   ***   
       SUBGROUP             ISUBGP         DEFAULT      [  0]   ***   
       SUBGRPAXIS           ISBXYZ         X            [  0]   ***   
       SYMMETRY             ISYM             ON         [  0]   ***   
       SYM_CHECK            ISYMCK         OVERRIDE     [  1]   ***   
       T3_EXTRAPOL          IT3EXT         ON           [  1]   ***   
       TAMP_SUM             IEVERY              5               ***   
       TESTSUITE            ITESTS         OFF          [  0]   ***   
       THERMOCH             ITHERM         OFF          [  0]   ***   
       TOL_CHOLESK          ITOLCH          10D-  4             ***   
       TRANGRAD             IRESRM         OFF          [  0]   ***   
       TRANS_INV            ITRAIN         USE          [  0]   ***   
       TREAT_PERT           ITREAT         SIMULTANEOUS [  0]   ***   
       UIJ_THRESHO          IUIJTH              1               ***   
       UNITS                IUNITS         ANGSTROM     [  0]   ***   
       UNOS                 IUNOS          OFF          [  0]   ***   
       UPDATE_HESS          IHUPDT         ON           [  1]   ***   
       VIBPHASE             ISETPH         STANDARD     [  0]   ***   
       VIBRATION            IVIB              NO        [  0]   ***   
       VIB_ALGORIT          IGEALG         STANDARD     [  0]   ***   
       VNATORB              IVNORB         OFF          [  0]   ***   
       VTRAN                IVTRAN         FULL/PARTIAL [  0]   ***   
       XFIELD               IXEFLD              0             x 10-6  
       XFORM_TOL            IXFTOL          10D- 18             ***   
       YFIELD               IYEFLD              0             x 10-6  
       ZFIELD               IZEFLD              0             x 10-6  
    -------------------------------------------------------------------
  @GETXYZ-I,     4 atoms read from ZMAT.
  1  C          6    12.00000
  2  C          6    12.00000
  3  C          6    12.00000
  4  C          6    12.00000
  1  C          6    12.00000
  2  C          6    12.00000
  3  C          6    12.00000
  4  C          6    12.00000
   12.0000000000
   12.0000000000
   12.0000000000
   12.0000000000
 After translation to center of mass coordinates 
        2.314348069862    0.000000000000    0.000000000000
       -2.314348069862    0.000000000000    0.000000000000
        0.000000000000   -1.376854742958    0.000000000000
        0.000000000000    1.376854742958    0.000000000000
  Inertia tensor (amu*bohr**2)
   45.49750    0.00000    0.00000
    0.00000  128.54897    0.00000
    0.00000    0.00000  174.04646
    Inertia tensor:
       45.497495596973    0.000000000000    0.000000000000
        0.000000000000  128.548967723339    0.000000000000
        0.000000000000    0.000000000000  174.046463320312
    Principal axis orientation for molecular system: 
        2.314348069862    0.000000000000    0.000000000000
       -2.314348069862    0.000000000000    0.000000000000
        0.000000000000   -1.376854742958    0.000000000000
        0.000000000000    1.376854742958    0.000000000000
    Diagonalized inertia tensor:
       45.497495596973    0.000000000000    0.000000000000
        0.000000000000  128.548967723339    0.000000000000
        0.000000000000    0.000000000000  174.046463320312
    Eigenvectors of inertia tensor: 
        1.000000000000    0.000000000000    0.000000000000
        0.000000000000    1.000000000000    0.000000000000
        0.000000000000    0.000000000000    1.000000000000
 factor:   60.1997200000000     
   Rotational constants (in cm-1): 
          0.3458830410             0.4683018547             1.3231435975
   Rotational constants (in MHz): 
      10369.3141554309         14039.3383764398         39666.8526944171
  @SYMMETRY-I, Handedness of inertial frame: 1.00000
  @SYMMETRY-I, The symmetry group is 1-fold degenerate.
  @SYMMETRY-I, The molecule belongs to an Abelian group.
   Principal axis orientation for molecule:
        2.314348069862    0.000000000000    0.000000000000
       -2.314348069862    0.000000000000    0.000000000000
        0.000000000000   -1.376854742958    0.000000000000
        0.000000000000    1.376854742958    0.000000000000
   Reflection in plane  3 is a valid symmetry operation.
   Rotation about  3 is a valid symmetry operation 
   Reflection in plane  2 is a valid symmetry operation.
   Rotation about  2 is a valid symmetry operation 
   Reflection in plane  1 is a valid symmetry operation.
   Rotation about  1 is a valid symmetry operation 
   The molecule possesses an inversion center. 
  Symmetry bits:    7   7   1
********************************************************************************
   The full molecular point group is D2h .
   The largest Abelian subgroup of the full molecular point group is D2h .
   The computational point group is D2h .
********************************************************************************
 ----------------------------------------------------------------
 Z-matrix   Atomic            Coordinates (in bohr)
  Symbol    Number           X              Y              Z
 ----------------------------------------------------------------
     C         6         2.31434807     0.00000000     0.00000000
     C         6        -2.31434807     0.00000000     0.00000000
     C         6         0.00000000    -1.37685474     0.00000000
     C         6         0.00000000     1.37685474     0.00000000
 ----------------------------------------------------------------
   Interatomic distance matrix (Angstroms) 
 
                 C             C             C             C    
                [ 1]        [ 2]        [ 3]        [ 4]
  C    [ 1]     0.00000
  C    [ 2]     2.44940     0.00000
  C    [ 3]     1.42504     1.42504     0.00000
  C    [ 4]     1.42504     1.42504     1.45720     0.00000
  Inertia tensor (amu*bohr**2)
   45.49750    0.00000    0.00000
    0.00000  128.54897    0.00000
    0.00000    0.00000  174.04646
   Rotational constants (in cm-1): 
          1.3231435975             0.4683018547             0.3458830410
   Rotational constants (in MHz): 
      39666.8526944171         14039.3383764398         10369.3141554309
  @GTFLGS-W, Keyword #UNITS not known and is ignored.
  @GTFLGS-W, Keyword #GEOM not known and is ignored.
  @GTFLGS-W, Keyword #COORD not known and is ignored.
  @GTFLGS-W, Keyword #DROPMO not known and is ignored.
  @GTFLGS-W, Keyword #CONTRACTION not known and is ignored.
  @GTFLGS-W, Keyword #EXCITE not known and is ignored.
  @GTFLGS-W, Keyword #ESTATE_CONV not known and is ignored.
  @GTFLGS-W, Keyword #ESTATE_SYM not known and is ignored.
  @GTFLGS-W, Keyword #SCF_DAMPING not known and is ignored.
  @GTFLGS-W, Keyword #OCCUPATION not known and is ignored.
  There are   4 frozen-core orbitals.
  There are   56 basis functions.
 @GEOPT-W, Archive file not created for single-point calculation.
  @CHECKOUT-I, Total execution time (CPU/WALL):        0.26/       0.96 seconds.
--executable xjoda finished with status     0 in        1.16 seconds (walltime).
 --invoking executable--
/home/nike/cfour/cfour_v2.00beta/bin/xvmol
 Serial version of molecule started
********************************************************************************
                    Input from MOL file
********************************************************************************
INTGRL        1    0    1    0    0    0    0    0    0                         
         *** CFOUR Program System (Release V0.1) ***                            
TITLE                                                                           
    2    3 X  Y   Z   0.10E-08              0    0                              
   9999.00      3.00                                                            
          6.00000000    1    3    1    1    1                                   
C #1   2.314348069861678   0.000000000000000   0.000000000000000                
    9    3                                                                      
   6665.00000000000       6.920000000000000E-004 -1.460000000000000E-004        
  0.000000000000000E+000                                                        
   1000.00000000000       5.329000000000000E-003 -1.154000000000000E-003        
  0.000000000000000E+000                                                        
   228.000000000000       2.707700000000000E-002 -5.725000000000000E-003        
  0.000000000000000E+000                                                        
   64.7100000000000       0.101718000000000      -2.331200000000000E-002        
  0.000000000000000E+000                                                        
   21.0600000000000       0.274740000000000      -6.395500000000000E-002        
  0.000000000000000E+000                                                        
   7.49500000000000       0.448564000000000      -0.149981000000000             
  0.000000000000000E+000                                                        
   2.79700000000000       0.285074000000000      -0.127262000000000             
  0.000000000000000E+000                                                        
  0.521500000000000       1.520400000000000E-002  0.544529000000000             
  0.000000000000000E+000                                                        
  0.159600000000000      -3.191000000000000E-003  0.580496000000000             
   1.00000000000000                                                             
    4    2                                                                      
   9.43900000000000       3.810900000000000E-002  0.000000000000000E+000        
   2.00200000000000       0.209480000000000       0.000000000000000E+000        
  0.545600000000000       0.508557000000000       0.000000000000000E+000        
  0.151700000000000       0.468842000000000        1.00000000000000             
    1    1                                                                      
  0.550000000000000        1.00000000000000                                     
          6.00000000    1    3    1    1    1                                   
C #2   0.000000000000000  -1.376854742958454   0.000000000000000                
    9    3                                                                      
   6665.00000000000       6.920000000000000E-004 -1.460000000000000E-004        
  0.000000000000000E+000                                                        
   1000.00000000000       5.329000000000000E-003 -1.154000000000000E-003        
  0.000000000000000E+000                                                        
   228.000000000000       2.707700000000000E-002 -5.725000000000000E-003        
  0.000000000000000E+000                                                        
   64.7100000000000       0.101718000000000      -2.331200000000000E-002        
  0.000000000000000E+000                                                        
   21.0600000000000       0.274740000000000      -6.395500000000000E-002        
  0.000000000000000E+000                                                        
   7.49500000000000       0.448564000000000      -0.149981000000000             
  0.000000000000000E+000                                                        
   2.79700000000000       0.285074000000000      -0.127262000000000             
  0.000000000000000E+000                                                        
  0.521500000000000       1.520400000000000E-002  0.544529000000000             
  0.000000000000000E+000                                                        
  0.159600000000000      -3.191000000000000E-003  0.580496000000000             
   1.00000000000000                                                             
    4    2                                                                      
   9.43900000000000       3.810900000000000E-002  0.000000000000000E+000        
   2.00200000000000       0.209480000000000       0.000000000000000E+000        
  0.545600000000000       0.508557000000000       0.000000000000000E+000        
  0.151700000000000       0.468842000000000        1.00000000000000             
    1    1                                                                      
  0.550000000000000        1.00000000000000                                     
FINISH                                                                          
 
********************************************************************************
 One- and two-electron integrals over symmetry-adapted AOs are calculated.

  Spherical harmonics are used.
  
   2 types of atoms
   3 symmetry operations

   Reflection in the YZ-plane
   Reflection in the XZ-plane
   Reflection in the XY-plane
  
  Integrals less than  0.10E-13 are neglected.

  Atomic type number  1 :
  -----------------------

    Nuclear charge:                        6
    number of symmetry independent atoms:  1
    highest orbital type:                  d

      1 groups of CGTOs of s type
      1 groups of CGTOs of p type
      1 groups of CGTOs of d type

    nuclear coordinates (in a.u.) are :

    C #1        2.314348069861678        0.000000000000000        0.000000000000000
  
  Atomic type number  2 :
  -----------------------

    Nuclear charge:                        6
    number of symmetry independent atoms:  1
    highest orbital type:                  d

      1 groups of CGTOs of s type
      1 groups of CGTOs of p type
      1 groups of CGTOs of d type

    nuclear coordinates (in a.u.) are :

    C #2        0.000000000000000       -1.376854742958454        0.000000000000000
  
   Internuclear distances (A) :

     for atom C #1 (coordinates :   2.31435   0.00000   0.00000)

     C #1   2     distance is  2.449
     C #2   1     distance is  1.425

     for atom C #2 (coordinates :   0.00000  -1.37685   0.00000)

     C #2   3     distance is  1.457

   Group multiplication table :

         1   2   3   4   5   6   7   8
         2   1   4   3   6   5   8   7
         3   4   1   2   7   8   5   6
         4   3   2   1   8   7   6   5
         5   6   7   8   1   2   3   4
         6   5   8   7   2   1   4   3
         7   8   5   6   3   4   1   2
         8   7   6   5   4   3   2   1

   Gaussian basis information :

   atom                 exponent      coefficients

 C #1  1    S   
+                 1    6665.000000   0.0006920  -0.0001460   0.0000000
                  2    1000.000000   0.0053290  -0.0011540   0.0000000
                  3     228.000000   0.0270770  -0.0057250   0.0000000
                  4      64.710000   0.1017180  -0.0233120   0.0000000
                  5      21.060000   0.2747400  -0.0639550   0.0000000
                  6       7.495000   0.4485640  -0.1499810   0.0000000
                  7       2.797000   0.2850740  -0.1272620   0.0000000
                  8       0.521500   0.0152040   0.5445290   0.0000000
                  9       0.159600  -0.0031910   0.5804960   1.0000000

 C #1  2    S   
+                10    6665.000000   0.0006920  -0.0001460   0.0000000
                 11    1000.000000   0.0053290  -0.0011540   0.0000000
                 12     228.000000   0.0270770  -0.0057250   0.0000000
                 13      64.710000   0.1017180  -0.0233120   0.0000000
                 14      21.060000   0.2747400  -0.0639550   0.0000000
                 15       7.495000   0.4485640  -0.1499810   0.0000000
                 16       2.797000   0.2850740  -0.1272620   0.0000000
                 17       0.521500   0.0152040   0.5445290   0.0000000
                 18       0.159600  -0.0031910   0.5804960   1.0000000

 C #1  1    X   
+                19       9.439000   0.0381090   0.0000000
                 20       2.002000   0.2094800   0.0000000
                 21       0.545600   0.5085570   0.0000000
                 22       0.151700   0.4688420   1.0000000

 C #1  2    X   
+                23       9.439000   0.0381090   0.0000000
                 24       2.002000   0.2094800   0.0000000
                 25       0.545600   0.5085570   0.0000000
                 26       0.151700   0.4688420   1.0000000

 C #1  1    Y   
+                27       9.439000   0.0381090   0.0000000
                 28       2.002000   0.2094800   0.0000000
                 29       0.545600   0.5085570   0.0000000
                 30       0.151700   0.4688420   1.0000000

 C #1  2    Y   
+                31       9.439000   0.0381090   0.0000000
                 32       2.002000   0.2094800   0.0000000
                 33       0.545600   0.5085570   0.0000000
                 34       0.151700   0.4688420   1.0000000

 C #1  1    Z   
+                35       9.439000   0.0381090   0.0000000
                 36       2.002000   0.2094800   0.0000000
                 37       0.545600   0.5085570   0.0000000
                 38       0.151700   0.4688420   1.0000000

 C #1  2    Z   
+                39       9.439000   0.0381090   0.0000000
                 40       2.002000   0.2094800   0.0000000
                 41       0.545600   0.5085570   0.0000000
                 42       0.151700   0.4688420   1.0000000

 C #1  1    XX  
+                43       0.550000   1.0000000

 C #1  2    XX  
+                44       0.550000   1.0000000

 C #1  1    XY  
+                45       0.550000   1.0000000

 C #1  2    XY  
+                46       0.550000   1.0000000

 C #1  1    XZ  
+                47       0.550000   1.0000000

 C #1  2    XZ  
+                48       0.550000   1.0000000

 C #1  1    YY  
+                49       0.550000   1.0000000

 C #1  2    YY  
+                50       0.550000   1.0000000

 C #1  1    YZ  
+                51       0.550000   1.0000000

 C #1  2    YZ  
+                52       0.550000   1.0000000

 C #1  1    ZZ  
+                53       0.550000   1.0000000

 C #1  2    ZZ  
+                54       0.550000   1.0000000

 C #2  1    S   
+                55    6665.000000   0.0006920  -0.0001460   0.0000000
                 56    1000.000000   0.0053290  -0.0011540   0.0000000
                 57     228.000000   0.0270770  -0.0057250   0.0000000
                 58      64.710000   0.1017180  -0.0233120   0.0000000
                 59      21.060000   0.2747400  -0.0639550   0.0000000
                 60       7.495000   0.4485640  -0.1499810   0.0000000
                 61       2.797000   0.2850740  -0.1272620   0.0000000
                 62       0.521500   0.0152040   0.5445290   0.0000000
                 63       0.159600  -0.0031910   0.5804960   1.0000000

 C #2  3    S   
+                64    6665.000000   0.0006920  -0.0001460   0.0000000
                 65    1000.000000   0.0053290  -0.0011540   0.0000000
                 66     228.000000   0.0270770  -0.0057250   0.0000000
                 67      64.710000   0.1017180  -0.0233120   0.0000000
                 68      21.060000   0.2747400  -0.0639550   0.0000000
                 69       7.495000   0.4485640  -0.1499810   0.0000000
                 70       2.797000   0.2850740  -0.1272620   0.0000000
                 71       0.521500   0.0152040   0.5445290   0.0000000
                 72       0.159600  -0.0031910   0.5804960   1.0000000

 C #2  1    X   
+                73       9.439000   0.0381090   0.0000000
                 74       2.002000   0.2094800   0.0000000
                 75       0.545600   0.5085570   0.0000000
                 76       0.151700   0.4688420   1.0000000

 C #2  3    X   
+                77       9.439000   0.0381090   0.0000000
                 78       2.002000   0.2094800   0.0000000
                 79       0.545600   0.5085570   0.0000000
                 80       0.151700   0.4688420   1.0000000

 C #2  1    Y   
+                81       9.439000   0.0381090   0.0000000
                 82       2.002000   0.2094800   0.0000000
                 83       0.545600   0.5085570   0.0000000
                 84       0.151700   0.4688420   1.0000000

 C #2  3    Y   
+                85       9.439000   0.0381090   0.0000000
                 86       2.002000   0.2094800   0.0000000
                 87       0.545600   0.5085570   0.0000000
                 88       0.151700   0.4688420   1.0000000

 C #2  1    Z   
+                89       9.439000   0.0381090   0.0000000
                 90       2.002000   0.2094800   0.0000000
                 91       0.545600   0.5085570   0.0000000
                 92       0.151700   0.4688420   1.0000000

 C #2  3    Z   
+                93       9.439000   0.0381090   0.0000000
                 94       2.002000   0.2094800   0.0000000
                 95       0.545600   0.5085570   0.0000000
                 96       0.151700   0.4688420   1.0000000

 C #2  1    XX  
+                97       0.550000   1.0000000

 C #2  3    XX  
+                98       0.550000   1.0000000

 C #2  1    XY  
+                99       0.550000   1.0000000

 C #2  3    XY  
+               100       0.550000   1.0000000

 C #2  1    XZ  
+               101       0.550000   1.0000000

 C #2  3    XZ  
+               102       0.550000   1.0000000

 C #2  1    YY  
+               103       0.550000   1.0000000

 C #2  3    YY  
+               104       0.550000   1.0000000

 C #2  1    YZ  
+               105       0.550000   1.0000000

 C #2  3    YZ  
+               106       0.550000   1.0000000

 C #2  1    ZZ  
+               107       0.550000   1.0000000

 C #2  3    ZZ  
+               108       0.550000   1.0000000
 60 56
  1  2  3  4  5  6  7***  8  9 10 11 12 13 14*** 15 16 17 18 19 20 21*** 22
 23 24 25 26 27 28 29 30 31 32 33 34*** 35 36 37 38 39 40 41 42 43 44 45 46
 47 48 49 50 51 52 53 54 55 56
1

             SYMMETRY TRANSFORMATION INFO
             56 SYMMETRY ADAPTED BASIS FUNCTIONS 


          irreducible representation number 1

    1    1  C #1     1s     2   1   1.0   2   1.0
    2    2  C #1     1s     2   3   1.0   4   1.0
    3    3  C #1     1s     2   5   1.0   6   1.0
    4    4  C #1     2px    2   7   1.0   8  -1.0
    5    5  C #1     2px    2   9   1.0  10  -1.0
    6    6  C #1     3d2-   6  19  -1.0  25  -1.0  29   2.0  20  -1.0  26  -1.0  30   2.0
    7    7  C #1     3d1+   4  19   1.0  25  -1.0  20   1.0  26  -1.0
    8    8  C #2     1s     2  31   1.0  32   1.0
    9    9  C #2     1s     2  33   1.0  34   1.0
   10   10  C #2     1s     2  35   1.0  36   1.0
   11   11  C #2     2py    2  41   1.0  42  -1.0
   12   12  C #2     2py    2  43   1.0  44  -1.0
   13   13  C #2     3d2-   6  49  -1.0  55  -1.0  59   2.0  50  -1.0  56  -1.0  60   2.0
   14   14  C #2     3d1+   4  49   1.0  55  -1.0  50   1.0  56  -1.0


          irreducible representation number 2

   15    1  C #1     1s     2   1   1.0   2  -1.0
   16    2  C #1     1s     2   3   1.0   4  -1.0
   17    3  C #1     1s     2   5   1.0   6  -1.0
   18    4  C #1     2px    2   7   1.0   8   1.0
   19    5  C #1     2px    2   9   1.0  10   1.0
   20    6  C #1     3d2-   6  19  -1.0  25  -1.0  29   2.0  20   1.0  26   1.0  30  -2.0
   21    7  C #1     3d1+   4  19   1.0  25  -1.0  20  -1.0  26   1.0
   22    8  C #2     2px    2  37   1.0  38   1.0
   23    9  C #2     2px    2  39   1.0  40   1.0
   24   10  C #2     3d1-   2  51   1.0  52  -1.0


          irreducible representation number 3

   25    1  C #1     2py    2  11   1.0  12   1.0
   26    2  C #1     2py    2  13   1.0  14   1.0
   27    3  C #1     3d1-   2  21   1.0  22  -1.0
   28    4  C #2     1s     2  31   1.0  32  -1.0
   29    5  C #2     1s     2  33   1.0  34  -1.0
   30    6  C #2     1s     2  35   1.0  36  -1.0
   31    7  C #2     2py    2  41   1.0  42   1.0
   32    8  C #2     2py    2  43   1.0  44   1.0
   33    9  C #2     3d2-   6  49  -1.0  55  -1.0  59   2.0  50   1.0  56   1.0  60  -2.0
   34   10  C #2     3d1+   4  49   1.0  55  -1.0  50  -1.0  56   1.0


          irreducible representation number 4

   35    1  C #1     2py    2  11   1.0  12  -1.0
   36    2  C #1     2py    2  13   1.0  14  -1.0
   37    3  C #1     3d1-   2  21   1.0  22   1.0
   38    4  C #2     2px    2  37   1.0  38  -1.0
   39    5  C #2     2px    2  39   1.0  40  -1.0
   40    6  C #2     3d1-   2  51   1.0  52   1.0


          irreducible representation number 5

   41    1  C #1     2pz    2  15   1.0  16   1.0
   42    2  C #1     2pz    2  17   1.0  18   1.0
   43    3  C #1     3d0    2  23   1.0  24  -1.0
   44    4  C #2     2pz    2  45   1.0  46   1.0
   45    5  C #2     2pz    2  47   1.0  48   1.0
   46    6  C #2     3d2+   2  57   1.0  58  -1.0


          irreducible representation number 6

   47    1  C #1     2pz    2  15   1.0  16  -1.0
   48    2  C #1     2pz    2  17   1.0  18  -1.0
   49    3  C #1     3d0    2  23   1.0  24   1.0
   50    4  C #2     3d0    2  53   1.0  54   1.0


          irreducible representation number 7

   51    1  C #1     3d2+   2  27   1.0  28   1.0
   52    2  C #2     2pz    2  45   1.0  46  -1.0
   53    3  C #2     2pz    2  47   1.0  48  -1.0
   54    4  C #2     3d2+   2  57   1.0  58   1.0


          irreducible representation number 8

   55    1  C #1     3d2+   2  27   1.0  28  -1.0
   56    2  C #2     3d0    2  53   1.0  54  -1.0
  Nuclear repulsion energy :   74.3239611126 a.u.
  required memory for a1 array                5013778  words 
  required memory for a2 array                2046060  words 
 @GETMEM-I,  Allocated      69 MB of main memory.
  @MOLECU-I, One electron integrals (CPU/WALL):        0.02/       0.03 seconds.
  @TWOEL-I,       9223 integrals of symmetry type  I I I I
  @TWOEL-I,      48778 integrals of symmetry type  I J I J
  @TWOEL-I,      30117 integrals of symmetry type  I I J J
  @TWOEL-I,      79632 integrals of symmetry type  I J K L
  @TWOEL-I, Total number of 2-e integrals     167750.
  @MOLECU-I, Two electron integrals (CPU/WALL):        0.22/       0.22 seconds.
  @CHECKOUT-I, Total execution time (CPU/WALL):        0.27/       0.61 seconds.
--executable xvmol finished with status     0 in        0.69 seconds (walltime).
 --invoking executable--
/home/nike/cfour/cfour_v2.00beta/bin/xvmol2ja
 @GETMEM-I,  Allocated    3814 MB of main memory.
  @CHECKOUT-I, Total execution time (CPU/WALL):        0.03/       0.02 seconds.
--executable xvmol2ja finished with status     0 in        0.09 seconds (walltime).
 --invoking executable--
/home/nike/cfour/cfour_v2.00beta/bin/xvscf
  There are   56 functions in the AO basis.

  There are 8 irreducible representations.

       Irrep        # of functions
         1                 14
         2                 10
         3                 10
         4                  6
         5                  6
         6                  4
         7                  4
         8                  2


  Parameters for SCF calculation: 
        SCF reference function:  RHF  
  Maximum number of iterations: 9999
     Full symmetry point group: D2h 
     Computational point group: D2h 
        Initial density matrix: MOREAD                 
     SCF convergence tolerance: 10**(-11)
  DIIS convergence acceleration:  ON
          Latest start for DIIS:   5
                     DIIS order:   6

  Memory information:     155346 words required.
  Fock matrices are constructed from AO integral file.
 @GETMEM-I,  Allocated       1 MB of main memory.
  Initialization and symmetry analysis required      0.003 seconds.

  @INITGES-I, Occupancies from core Hamiltonian:

          Alpha population by irrep:   4    3    2    1    1    0    1    0
           Beta population by irrep:   4    3    2    1    1    0    1    0


 total no. of electrons in initial guess :  0.000000000000000E+000
  --------------------------------------------------------------------
  Iteration         Total Energy            Largest Density Difference
  --------------------------------------------------------------------
       0            74.323961112554130              0.0000000000D+00
   current occupation vector 
     4  3  2  1  1  0  1  0
     4  3  2  1  1  0  1  0
  processed                   9223  ao basis integrals from 
                    16  buffers.
  processed                  30117  ao basis integrals from 
                    51  buffers.
  processed                  48778  ao basis integrals from 
                    82  buffers.
       1          -134.013455599483621              0.4203067314D+01
   current occupation vector 
     4  3  2  1  1  0  1  0
     4  3  2  1  1  0  1  0
  processed                   9223  ao basis integrals from 
                    16  buffers.
  processed                  30117  ao basis integrals from 
                    51  buffers.
  processed                  48778  ao basis integrals from 
                    82  buffers.
       2          -139.390076356327199              0.7094044025D+01
   current occupation vector 
     4  3  2  1  1  1  0  0
     4  3  2  1  1  1  0  0
  processed                   9223  ao basis integrals from 
                    16  buffers.
  processed                  30117  ao basis integrals from 
                    51  buffers.
  processed                  48778  ao basis integrals from 
                    82  buffers.
       3          -140.842307235421003              0.7098681135D+01
   current occupation vector 
     4  2  3  1  1  0  1  0
     4  2  3  1  1  0  1  0
  processed                   9223  ao basis integrals from 
                    16  buffers.
  processed                  30117  ao basis integrals from 
                    51  buffers.
  processed                  48778  ao basis integrals from 
                    82  buffers.
       4          -143.226980255065541              0.3961868891D+01
   current occupation vector 
     4  3  2  1  1  1  0  0
     4  3  2  1  1  1  0  0
 
 sum over diagonal and offdiagdiagonal of C(T)*S*C for irrep
                     1
 -1.505462421391712E-013  4.047549805504916E-013
 reorthoganalization of MOs is carried out
 sum over diagonal and offdiagdiagonal of C(T)*S*C for irrep
                     1
 -2.120525977034049E-014 -8.467645464753117E-014
 
 sum over diagonal and offdiagdiagonal of C(T)*S*C for irrep
                     2
  6.727951529228449E-014  1.377040332814544E-013
 reorthoganalization of MOs is carried out
 sum over diagonal and offdiagdiagonal of C(T)*S*C for irrep
                     2
 -7.549516567451064E-015 -1.744893642639803E-014
 
 sum over diagonal and offdiagdiagonal of C(T)*S*C for irrep
                     3
  8.792966355031240E-014 -2.260597590536071E-014
 reorthoganalization of MOs is carried out
 sum over diagonal and offdiagdiagonal of C(T)*S*C for irrep
                     3
  2.553512956637860E-015  5.814559535796554E-015
 
 sum over diagonal and offdiagdiagonal of C(T)*S*C for irrep
                     4
  1.687538997430238E-014  8.220854552654089E-015
 reorthoganalization of MOs is carried out
 sum over diagonal and offdiagdiagonal of C(T)*S*C for irrep
                     4
 -9.992007221626409E-016  2.307182223049153E-015
 
 sum over diagonal and offdiagdiagonal of C(T)*S*C for irrep
                     5
  5.329070518200751E-015  1.084896061875895E-014
 reorthoganalization of MOs is carried out
 sum over diagonal and offdiagdiagonal of C(T)*S*C for irrep
                     5
  3.330669073875470E-016  5.793976409762536E-016
 
 sum over diagonal and offdiagdiagonal of C(T)*S*C for irrep
                     6
 -2.664535259100376E-015  1.830869940897065E-015
 reorthoganalization of MOs is carried out
 sum over diagonal and offdiagdiagonal of C(T)*S*C for irrep
                     6
  6.661338147750939E-016 -2.245967132493422E-016
 
 sum over diagonal and offdiagdiagonal of C(T)*S*C for irrep
                     7
  7.993605777301127E-015 -2.243153491261555E-015
 reorthoganalization of MOs is carried out
 sum over diagonal and offdiagdiagonal of C(T)*S*C for irrep
                     7
  6.661338147750939E-016  2.007979677603263E-016
 
 sum over diagonal and offdiagdiagonal of C(T)*S*C for irrep
                     8
 -5.551115123125783E-016  1.387778780781446E-016
 reorthoganalization of MOs is carried out
 sum over diagonal and offdiagdiagonal of C(T)*S*C for irrep
                     8
  1.110223024625157E-016  5.551115123125783E-017
  processed                   9223  ao basis integrals from 
                    16  buffers.
  processed                  30117  ao basis integrals from 
                    51  buffers.
  processed                  48778  ao basis integrals from 
                    82  buffers.
       5          -142.071821256125702              0.3335513425D+01
   current occupation vector 
     4  2  3  1  1  0  1  0
     4  2  3  1  1  0  1  0
  processed                   9223  ao basis integrals from 
                    16  buffers.
  processed                  30117  ao basis integrals from 
                    51  buffers.
  processed                  48778  ao basis integrals from 
                    82  buffers.
       6          -150.970393447890501              0.3331521120D+01
   current occupation vector 
     5  3  2  1  1  0  0  0
     5  3  2  1  1  0  0  0
  processed                   9223  ao basis integrals from 
                    16  buffers.
  processed                  30117  ao basis integrals from 
                    51  buffers.
  processed                  48778  ao basis integrals from 
                    82  buffers.
       7          -151.129329650415912              0.1498735176D+00
   current occupation vector 
     5  3  2  1  1  0  0  0
     5  3  2  1  1  0  0  0
  processed                   9223  ao basis integrals from 
                    16  buffers.
  processed                  30117  ao basis integrals from 
                    51  buffers.
  processed                  48778  ao basis integrals from 
                    82  buffers.
       8          -151.160336947244218              0.7576587953D-01
   current occupation vector 
     5  3  2  1  1  0  0  0
     5  3  2  1  1  0  0  0
  processed                   9223  ao basis integrals from 
                    16  buffers.
  processed                  30117  ao basis integrals from 
                    51  buffers.
  processed                  48778  ao basis integrals from 
                    82  buffers.
       9          -151.161838254603026              0.1807960209D-01
   current occupation vector 
     5  3  2  1  1  0  0  0
     5  3  2  1  1  0  0  0
 
 sum over diagonal and offdiagdiagonal of C(T)*S*C for irrep
                     1
 -1.799671522917379E-013  2.816612018349198E-013
 reorthoganalization of MOs is carried out
 sum over diagonal and offdiagdiagonal of C(T)*S*C for irrep
                     1
 -1.398881011027697E-014 -6.597611448234189E-015
 
 sum over diagonal and offdiagdiagonal of C(T)*S*C for irrep
                     2
  4.407585407761871E-014  6.955819345718975E-014
 reorthoganalization of MOs is carried out
 sum over diagonal and offdiagdiagonal of C(T)*S*C for irrep
                     2
  2.031708135064036E-014  2.208953538197888E-014
 
 sum over diagonal and offdiagdiagonal of C(T)*S*C for irrep
                     3
  7.482903185973555E-014  7.695684326151005E-014
 reorthoganalization of MOs is carried out
 sum over diagonal and offdiagdiagonal of C(T)*S*C for irrep
                     3
  6.439293542825908E-015  6.419582005764363E-015
 
 sum over diagonal and offdiagdiagonal of C(T)*S*C for irrep
                     4
  9.658940314238862E-015 -3.004324219957333E-016
 reorthoganalization of MOs is carried out
 sum over diagonal and offdiagdiagonal of C(T)*S*C for irrep
                     4
 -1.665334536937735E-015  3.638690911078601E-015
 
 sum over diagonal and offdiagdiagonal of C(T)*S*C for irrep
                     5
  1.132427485117660E-014  4.836409051023338E-015
 reorthoganalization of MOs is carried out
 sum over diagonal and offdiagdiagonal of C(T)*S*C for irrep
                     5
 -5.551115123125783E-016  9.458579752763541E-016
 
 sum over diagonal and offdiagdiagonal of C(T)*S*C for irrep
                     6
 -3.108624468950438E-015  1.488413455063732E-015
 reorthoganalization of MOs is carried out
 sum over diagonal and offdiagdiagonal of C(T)*S*C for irrep
                     6
 -2.220446049250313E-016 -1.462248537750215E-016
 
 sum over diagonal and offdiagdiagonal of C(T)*S*C for irrep
                     7
  2.220446049250313E-015  6.028312128684533E-016
 reorthoganalization of MOs is carried out
 sum over diagonal and offdiagdiagonal of C(T)*S*C for irrep
                     7
  4.440892098500626E-016 -1.116325916809908E-016
 
 sum over diagonal and offdiagdiagonal of C(T)*S*C for irrep
                     8
 -1.887379141862766E-015 -4.440892098500626E-016
 reorthoganalization of MOs is carried out
 sum over diagonal and offdiagdiagonal of C(T)*S*C for irrep
                     8
 -2.220446049250313E-016  0.000000000000000E+000
  processed                   9223  ao basis integrals from 
                    16  buffers.
  processed                  30117  ao basis integrals from 
                    51  buffers.
  processed                  48778  ao basis integrals from 
                    82  buffers.
      10          -151.161850557588593              0.3908270070D-02
   current occupation vector 
     5  3  2  1  1  0  0  0
     5  3  2  1  1  0  0  0
  processed                   9223  ao basis integrals from 
                    16  buffers.
  processed                  30117  ao basis integrals from 
                    51  buffers.
  processed                  48778  ao basis integrals from 
                    82  buffers.
      11          -151.161851077746746              0.7437754899D-03
   current occupation vector 
     5  3  2  1  1  0  0  0
     5  3  2  1  1  0  0  0
  processed                   9223  ao basis integrals from 
                    16  buffers.
  processed                  30117  ao basis integrals from 
                    51  buffers.
  processed                  48778  ao basis integrals from 
                    82  buffers.
      12          -151.161851099062403              0.9798202252D-04
   current occupation vector 
     5  3  2  1  1  0  0  0
     5  3  2  1  1  0  0  0
  processed                   9223  ao basis integrals from 
                    16  buffers.
  processed                  30117  ao basis integrals from 
                    51  buffers.
  processed                  48778  ao basis integrals from 
                    82  buffers.
      13          -151.161851099658179              0.1881431095D-04
   current occupation vector 
     5  3  2  1  1  0  0  0
     5  3  2  1  1  0  0  0
  processed                   9223  ao basis integrals from 
                    16  buffers.
  processed                  30117  ao basis integrals from 
                    51  buffers.
  processed                  48778  ao basis integrals from 
                    82  buffers.
      14          -151.161851099672845              0.3870889124D-05
   current occupation vector 
     5  3  2  1  1  0  0  0
     5  3  2  1  1  0  0  0
 
 sum over diagonal and offdiagdiagonal of C(T)*S*C for irrep
                     1
 -1.755262601932372E-013  2.035688476516488E-013
 reorthoganalization of MOs is carried out
 sum over diagonal and offdiagdiagonal of C(T)*S*C for irrep
                     1
 -2.120525977034049E-014 -3.299427217909257E-014
 
 sum over diagonal and offdiagdiagonal of C(T)*S*C for irrep
                     2
  5.972999872483342E-014  8.484350381206492E-014
 reorthoganalization of MOs is carried out
 sum over diagonal and offdiagdiagonal of C(T)*S*C for irrep
                     2
 -1.509903313490213E-014 -2.381006476693675E-014
 
 sum over diagonal and offdiagdiagonal of C(T)*S*C for irrep
                     3
  9.114931032172535E-014  8.451930310978379E-014
 reorthoganalization of MOs is carried out
 sum over diagonal and offdiagdiagonal of C(T)*S*C for irrep
                     3
  7.771561172376096E-016  3.698356284796408E-015
 
 sum over diagonal and offdiagdiagonal of C(T)*S*C for irrep
                     4
  1.332267629550188E-014  3.523223379708895E-015
 reorthoganalization of MOs is carried out
 sum over diagonal and offdiagdiagonal of C(T)*S*C for irrep
                     4
 -9.992007221626409E-016 -1.415100675528080E-015
 
 sum over diagonal and offdiagdiagonal of C(T)*S*C for irrep
                     5
  5.107025913275720E-015  1.941155569618047E-015
 reorthoganalization of MOs is carried out
 sum over diagonal and offdiagdiagonal of C(T)*S*C for irrep
                     5
  0.000000000000000E+000  2.063453574674412E-015
 
 sum over diagonal and offdiagdiagonal of C(T)*S*C for irrep
                     6
 -4.107825191113079E-015  2.634223468315833E-015
 reorthoganalization of MOs is carried out
 sum over diagonal and offdiagdiagonal of C(T)*S*C for irrep
                     6
  0.000000000000000E+000 -1.817968753385017E-016
 
 sum over diagonal and offdiagdiagonal of C(T)*S*C for irrep
                     7
  1.199040866595169E-014  1.634964462376485E-018
 reorthoganalization of MOs is carried out
 sum over diagonal and offdiagdiagonal of C(T)*S*C for irrep
                     7
 -1.110223024625157E-016  7.815403303141074E-017
 
 sum over diagonal and offdiagdiagonal of C(T)*S*C for irrep
                     8
 -2.220446049250313E-016  1.665334536937735E-016
 reorthoganalization of MOs is carried out
 sum over diagonal and offdiagdiagonal of C(T)*S*C for irrep
                     8
 -2.220446049250313E-016  1.665334536937735E-016
  processed                   9223  ao basis integrals from 
                    16  buffers.
  processed                  30117  ao basis integrals from 
                    51  buffers.
  processed                  48778  ao basis integrals from 
                    82  buffers.
      15          -151.161851099673072              0.4538857877D-06
   current occupation vector 
     5  3  2  1  1  0  0  0
     5  3  2  1  1  0  0  0
  processed                   9223  ao basis integrals from 
                    16  buffers.
  processed                  30117  ao basis integrals from 
                    51  buffers.
  processed                  48778  ao basis integrals from 
                    82  buffers.
      16          -151.161851099673299              0.1144350994D-06
   current occupation vector 
     5  3  2  1  1  0  0  0
     5  3  2  1  1  0  0  0
  processed                   9223  ao basis integrals from 
                    16  buffers.
  processed                  30117  ao basis integrals from 
                    51  buffers.
  processed                  48778  ao basis integrals from 
                    82  buffers.
      17          -151.161851099673186              0.2135608146D-07
   current occupation vector 
     5  3  2  1  1  0  0  0
     5  3  2  1  1  0  0  0
  processed                   9223  ao basis integrals from 
                    16  buffers.
  processed                  30117  ao basis integrals from 
                    51  buffers.
  processed                  48778  ao basis integrals from 
                    82  buffers.
      18          -151.161851099673186              0.2761840312D-08
   current occupation vector 
     5  3  2  1  1  0  0  0
     5  3  2  1  1  0  0  0
  processed                   9223  ao basis integrals from 
                    16  buffers.
  processed                  30117  ao basis integrals from 
                    51  buffers.
  processed                  48778  ao basis integrals from 
                    82  buffers.
      19          -151.161851099673356              0.3990334729D-09
   current occupation vector 
     5  3  2  1  1  0  0  0
     5  3  2  1  1  0  0  0
 
 sum over diagonal and offdiagdiagonal of C(T)*S*C for irrep
                     1
 -1.849631559025511E-013  2.950402123989520E-013
 reorthoganalization of MOs is carried out
 sum over diagonal and offdiagdiagonal of C(T)*S*C for irrep
                     1
 -1.887379141862766E-015 -2.990776547769569E-014
 
 sum over diagonal and offdiagdiagonal of C(T)*S*C for irrep
                     2
  5.240252676230739E-014  6.787316213377308E-014
 reorthoganalization of MOs is carried out
 sum over diagonal and offdiagdiagonal of C(T)*S*C for irrep
                     2
 -1.210143096841421E-014 -2.863379137072025E-014
 
 sum over diagonal and offdiagdiagonal of C(T)*S*C for irrep
                     3
  9.914291609902648E-014  8.852431327924629E-014
 reorthoganalization of MOs is carried out
 sum over diagonal and offdiagdiagonal of C(T)*S*C for irrep
                     3
  8.215650382226158E-015  2.249271000580474E-015
 
 sum over diagonal and offdiagdiagonal of C(T)*S*C for irrep
                     4
  8.881784197001252E-015  6.518223460982853E-016
 reorthoganalization of MOs is carried out
 sum over diagonal and offdiagdiagonal of C(T)*S*C for irrep
                     4
  1.776356839400250E-015 -5.280064580004407E-016
 
 sum over diagonal and offdiagdiagonal of C(T)*S*C for irrep
                     5
 -6.661338147750939E-016  4.745769749403550E-015
 reorthoganalization of MOs is carried out
 sum over diagonal and offdiagdiagonal of C(T)*S*C for irrep
                     5
 -8.881784197001252E-016 -2.749536709423239E-016
 
 sum over diagonal and offdiagdiagonal of C(T)*S*C for irrep
                     6
  1.110223024625157E-016  1.156949992082373E-015
 reorthoganalization of MOs is carried out
 sum over diagonal and offdiagdiagonal of C(T)*S*C for irrep
                     6
 -3.330669073875470E-016 -2.296953843583722E-016
 
 sum over diagonal and offdiagdiagonal of C(T)*S*C for irrep
                     7
  8.881784197001252E-015 -2.294518960173699E-015
 reorthoganalization of MOs is carried out
 sum over diagonal and offdiagdiagonal of C(T)*S*C for irrep
                     7
  0.000000000000000E+000 -8.246539161802940E-016
 
 sum over diagonal and offdiagdiagonal of C(T)*S*C for irrep
                     8
 -2.220446049250313E-016 -4.996003610813204E-016
 reorthoganalization of MOs is carried out
 sum over diagonal and offdiagdiagonal of C(T)*S*C for irrep
                     8
 -3.330669073875470E-016  2.775557561562891E-016
  processed                   9223  ao basis integrals from 
                    16  buffers.
  processed                  30117  ao basis integrals from 
                    51  buffers.
  processed                  48778  ao basis integrals from 
                    82  buffers.
      20          -151.161851099673243              0.1274677031D-09
   current occupation vector 
     5  3  2  1  1  0  0  0
     5  3  2  1  1  0  0  0
  processed                   9223  ao basis integrals from 
                    16  buffers.
  processed                  30117  ao basis integrals from 
                    51  buffers.
  processed                  48778  ao basis integrals from 
                    82  buffers.
      21          -151.161851099673243              0.1848993181D-10
   current occupation vector 
     5  3  2  1  1  0  0  0
     5  3  2  1  1  0  0  0

  SCF has converged.

 Density matrix saved to file den.dat
 total electron number:   24.0000000000000     
  processed                   9223  ao basis integrals from 
                    16  buffers.
  processed                  30117  ao basis integrals from 
                    51  buffers.
  processed                  48778  ao basis integrals from 
                    82  buffers.
     E(SCF)=      -151.161851099673186              0.4802491738D-11


  Final occupancies:

     Alpha population by irrep:   5    3    2    1    1    0    0    0
      Beta population by irrep:   5    3    2    1    1    0    0    0



  ORBITAL EIGENVECTORS

  SYMMETRY BLOCK 1 (ALPHA)

                          MO #  1       MO #  2       MO #  3       MO #  4

    BASIS/ORB E          -11.37171     -11.34930      -1.36285      -0.59463
                        ----------    ----------    ----------    ----------
    1; C #1                0.70680       0.03306       0.00828       0.00396
    2; C #1                0.00277       0.00106      -0.34987      -0.44579
    3; C #1               -0.00137      -0.00281       0.13311      -0.09960
    4; C #1               -0.00414      -0.00083       0.20435      -0.36165
    5; C #1                0.00258       0.00113      -0.07664       0.06467
    6; C #1               -0.00023      -0.00015       0.00449      -0.00379
    7; C #1                0.00026       0.00008      -0.00929       0.01295
    8; C #2                0.03241      -0.70715       0.01644       0.00801
    9; C #2               -0.00053      -0.00502      -0.49877       0.07588
   10; C #2                0.00056       0.00491       0.17938      -0.09000
   11; C #2               -0.00073      -0.00295      -0.22897       0.34796
   12; C #2               -0.00024       0.00272       0.08272      -0.06689
   13; C #2                0.00021       0.00011       0.00531      -0.00162
   14; C #2               -0.00022      -0.00022       0.00515      -0.01919


                          MO #  5       MO #  6       MO #  7       MO #  8

    BASIS/ORB E           -0.41989       0.39693       0.56249       0.62437
                        ----------    ----------    ----------    ----------
    1; C #1                0.01236       0.02694       0.10888       0.18758
    2; C #1                0.37192      -0.35455       0.49063       0.82621
    3; C #1                0.00163      -2.10230       0.41983      -2.27519
    4; C #1                0.11995       0.26030      -0.39771      -0.61262
    5; C #1                0.03286       1.71222       0.00108       1.61831
    6; C #1                0.00237       0.00552      -0.02031       0.00102
    7; C #1                0.00824      -0.00045       0.01829      -0.05431
    8; C #2                0.00724      -0.05745       0.18443       0.14072
    9; C #2               -0.34584       0.09339       0.53026       0.66885
   10; C #2               -0.16361       2.67692      -1.02342       0.93035
   11; C #2                0.49414       0.25070       0.59548      -0.51794
   12; C #2               -0.02212       0.59640      -1.35087       1.04122
   13; C #2               -0.00498      -0.00184      -0.02796      -0.04358
   14; C #2               -0.00878      -0.02496      -0.01348       0.06216


                          MO #  9       MO # 10       MO # 11       MO # 12

    BASIS/ORB E            0.73834       1.26508       1.43783       1.97528
                        ----------    ----------    ----------    ----------
    1; C #1                0.19702       0.60964       0.08115       0.05216
    2; C #1                0.88878       2.62898       0.24819       0.10960
    3; C #1               -0.42557      -6.39763      -1.96436      -3.22711
    4; C #1                0.75134       0.04006       0.32091       0.69933
    5; C #1               -0.90505       2.12307       0.64824       1.18390
    6; C #1               -0.03996       0.04570      -0.11838       0.08128
    7; C #1                0.02545       0.06015      -0.18587      -0.30018
    8; C #2                0.29713      -0.42490      -0.22285      -0.38355
    9; C #2                1.50498      -1.80235      -0.85803      -1.39045
   10; C #2               -1.93248       5.78191       2.47479       4.26662
   11; C #2               -0.04345       0.00120       0.37470       0.04569
   12; C #2               -0.15453       0.94751       0.33635       1.27292
   13; C #2               -0.01109       0.01187       0.01895      -0.20201
   14; C #2               -0.03817       0.03918       0.15144      -0.12406


                          MO # 13       MO # 14

    BASIS\ORB E            2.06443       2.35050
                        ----------    ----------
    1; C #1                0.24475       0.24211
    2; C #1                0.75061       1.11827
    3; C #1               -2.32257       0.40520
    4; C #1                0.37111      -0.74522
    5; C #1                0.90155       0.05189
    6; C #1                0.20647      -0.05003
    7; C #1               -0.17196      -0.26670
    8; C #2                0.43425       0.27167
    9; C #2                1.89570       0.88674
   10; C #2                0.25671      -2.04210
   11; C #2                0.89102      -0.02445
   12; C #2               -0.46020      -0.38668
   13; C #2                0.02799       0.17947
   14; C #2                0.20299      -0.36707


  SYMMETRY BLOCK 2 (ALPHA)

                          MO # 15       MO # 16       MO # 17       MO # 18

    BASIS/ORB E          -11.37172      -1.00951      -0.45529       0.38399
                        ----------    ----------    ----------    ----------
   15; C #1                0.70792       0.00650       0.00001       0.05393
   16; C #1                0.00414      -0.56644       0.32471      -0.21602
   17; C #1               -0.00500       0.11638       0.08525      -3.26921
   18; C #1               -0.00447       0.19494       0.56895      -0.00642
   19; C #1                0.00398      -0.05269      -0.02185       1.59153
   20; C #1               -0.00018       0.00414       0.00597       0.00715
   21; C #1                0.00038      -0.00483      -0.01141      -0.02664
   22; C #2               -0.00114      -0.39820      -0.27282       0.19217
   23; C #2                0.00155       0.14556       0.10190       2.11615
   24; C #2               -0.00105      -0.03850      -0.02582       0.01916


                          MO # 19       MO # 20       MO # 21       MO # 22

    BASIS/ORB E            0.62477       0.83535       1.12842       1.50680
                        ----------    ----------    ----------    ----------
   15; C #1                0.07597       0.13495       0.62642       0.04199
   16; C #1                0.20097       0.42563       2.76331       0.05846
   17; C #1               -0.44998      -0.11536      -6.44154      -2.13289
   18; C #1               -0.64743       0.53139       0.05263       0.65493
   19; C #1                1.43479      -0.29486       1.50360       0.11027
   20; C #1                0.00280      -0.06582      -0.03198       0.07816
   21; C #1                0.02105       0.00322      -0.02829       0.29281
   22; C #2                0.27313       0.97068      -0.39458       0.19699
   23; C #2               -0.39235      -1.04576       2.44572       1.25370
   24; C #2                0.15453      -0.15367       0.19509       0.23189


                          MO # 23       MO # 24

    BASIS\ORB E            1.98032       2.28579
                        ----------    ----------
   15; C #1                0.50841       0.14101
   16; C #1                1.97867       0.81352
   17; C #1               -4.09776       1.24683
   18; C #1               -0.12671      -1.15584
   19; C #1                1.52788      -0.19749
   20; C #1                0.21883      -0.09019
   21; C #1               -0.10667       0.35534
   22; C #2                0.80518      -0.78546
   23; C #2                0.48067      -0.48350
   24; C #2               -0.16093      -0.94947


  SYMMETRY BLOCK 3 (ALPHA)

                          MO # 25       MO # 26       MO # 27       MO # 28

    BASIS/ORB E          -11.34834      -0.76644       0.11666       0.31691
                        ----------    ----------    ----------    ----------
   25; C #1                0.00040       0.31115       0.56413       0.05710
   26; C #1               -0.00056      -0.08663       0.15400       0.76228
   27; C #1               -0.00052      -0.03649      -0.01330      -0.00025
   28; C #2                0.70816       0.00459       0.00155      -0.06637
   29; C #2                0.00590      -0.61460       0.13863       0.22638
   30; C #2               -0.00653      -0.02794      -0.09648       3.07450
   31; C #2                0.00386       0.14244      -0.39660       0.14221
   32; C #2               -0.00342      -0.05944      -0.45379       1.65112
   33; C #2               -0.00028       0.00064       0.00709      -0.01161
   34; C #2               -0.00021      -0.01408      -0.01241      -0.00060


                          MO # 29       MO # 30       MO # 31       MO # 32

    BASIS/ORB E            0.72020       0.81119       1.16539       1.79447
                        ----------    ----------    ----------    ----------
   25; C #1                0.45582       0.82913       0.01509       0.55753
   26; C #1               -0.94953      -1.20421       0.76252      -0.26353
   27; C #1               -0.02656       0.15440      -0.20555       0.39694
   28; C #2               -0.08175       0.05691      -0.68433      -0.42799
   29; C #2               -0.28400       0.48186      -2.89512      -1.78379
   30; C #2                1.66013      -1.05234       7.33020       3.60914
   31; C #2               -0.81828       0.71129       0.27046       0.00412
   32; C #2                2.19258      -0.34033       1.85391       1.15052
   33; C #2               -0.01795       0.06131       0.03338      -0.15094
   34; C #2               -0.10524      -0.03230      -0.01949       0.10382


                          MO # 33       MO # 34

    BASIS\ORB E            2.05469       2.42641
                        ----------    ----------
   25; C #1                0.32844       0.85019
   26; C #1                0.23671       0.31144
   27; C #1               -0.46358      -1.00455
   28; C #2               -0.04771       0.09261
   29; C #2                0.20053       0.49737
   30; C #2                3.66477       0.37296
   31; C #2                1.27210      -0.16185
   32; C #2                1.05114      -0.28584
   33; C #2               -0.22942      -0.05272
   34; C #2               -0.26967       0.62527


  SYMMETRY BLOCK 4 (ALPHA)

                          MO # 35       MO # 36       MO # 37       MO # 38

    BASIS/ORB E           -0.56867       0.43556       0.67404       0.89318
                        ----------    ----------    ----------    ----------
   35; C #1                0.49096       0.11302       0.88866       0.72411
   36; C #1               -0.11829       1.48893       0.17450      -2.53575
   37; C #1               -0.04517       0.03855      -0.07076       0.21763
   38; C #2               -0.51277       0.62713      -0.20139       0.78374
   39; C #2                0.05783       1.14458       2.02110      -3.38308
   40; C #2               -0.01117       0.02362       0.00888      -0.14861


                          MO # 39       MO # 40

    BASIS\ORB E            1.99680       2.25686
                        ----------    ----------
   35; C #1                0.27447       0.56484
   36; C #1               -0.22458       0.99128
   37; C #1                0.47715      -0.94582
   38; C #2               -0.45078       1.14963
   39; C #2                0.78851       1.36920
   40; C #2                0.78116       0.93682


  SYMMETRY BLOCK 5 (ALPHA)

                          MO # 41       MO # 42       MO # 43       MO # 44

    BASIS/ORB E           -0.56937       0.22960       0.58537       0.80806
                        ----------    ----------    ----------    ----------
   41; C #1                0.31047       0.47689       0.67816       0.85822
   42; C #1               -0.05888       0.51590      -0.54596      -1.55653
   43; C #1               -0.04109       0.01190      -0.09322       0.04715
   44; C #2                0.47873      -0.40740       0.62173      -0.74170
   45; C #2               -0.03293      -0.34206      -0.77056       1.36240
   46; C #2                0.05427      -0.02633       0.13571      -0.01884


                          MO # 45       MO # 46

    BASIS\ORB E            1.18782       1.90673
                        ----------    ----------
   41; C #1                0.31965       0.03946
   42; C #1               -0.23217       0.51308
   43; C #1                0.19404      -0.86452
   44; C #2                0.54436      -0.23092
   45; C #2               -0.33630      -0.36563
   46; C #2               -0.50744      -0.43529


  SYMMETRY BLOCK 6 (ALPHA)

                          MO # 47       MO # 48       MO # 49       MO # 50

    BASIS/ORB E           -0.01574       0.69563       1.20727       2.10269
                        ----------    ----------    ----------    ----------
   47; C #1                0.56639       1.01605       0.48288       0.32058
   48; C #1                0.18144      -1.32686      -0.31655       0.17622
   49; C #1               -0.03384      -0.05482       0.43452      -0.78409
   50; C #2                0.04266       0.14491      -0.35586      -0.84546


  SYMMETRY BLOCK 7 (ALPHA)

                          MO # 51       MO # 52       MO # 53       MO # 54

    BASIS/ORB E            0.07362       0.72149       1.49352       1.97889
                        ----------    ----------    ----------    ----------
   51; C #1                0.03330       0.06206       0.71909       0.27234
   52; C #2               -0.58829      -1.11297       0.19811       0.22528
   53; C #2               -0.36952       1.61327       0.11500       0.41704
   54; C #2               -0.00676       0.03793      -0.16308       1.01790


  SYMMETRY BLOCK 8 (ALPHA)

                          MO # 55       MO # 56

    BASIS\ORB E            1.12704       2.04386
                        ----------    ----------
   55; C #1                0.44003       0.69606
   56; C #2               -0.39897       0.78297


 @PUTMOS-I, Writing converged MOs to NEWMOS. 
 @PUTMOS-I, Symmetry   1 Full Blocks  3 Partial Blocksize   2
 @PUTMOS-I, Symmetry   2 Full Blocks  2 Partial Blocksize   2
 @PUTMOS-I, Symmetry   3 Full Blocks  2 Partial Blocksize   2
 @PUTMOS-I, Symmetry   4 Full Blocks  1 Partial Blocksize   2
 @PUTMOS-I, Symmetry   5 Full Blocks  1 Partial Blocksize   2
 @PUTMOS-I, Symmetry   6 Full Blocks  1 Partial Blocksize   0
 @PUTMOS-I, Symmetry   7 Full Blocks  1 Partial Blocksize   0
 @PUTMOS-I, Symmetry   8 Full Blocks  0 Partial Blocksize   2
--------------------------------------------------------------------------------
Eigenvalue    -11.371716    -11.371711    -11.349296    -11.348340     -1.362850
 Symmetry                                      Ag           B3u            Ag    
--------------------------------------------------------------------------------
   1 S         0.7079170     0.7068004     0.0330551     0.0000000     0.0082827
   1 S         0.0041391     0.0027677     0.0010630     0.0000000    -0.3498725
[...]
   -0.016211  11a 11b -> 24a 24b                                        
   -0.013858  11a 11b -> 32a 32b                                        
   -0.010295  8a 10b -> 13a 14b                                         
    0.010290  8a 10b -> 13a 41b                                         
   -0.015751  6a 7b -> 13a 14b                                          
   -0.010295  10a 8b -> 14a 13b                                         
    0.010290  10a 8b -> 41a 13b                                         
   -0.015751  7a 6b -> 14a 13b                                          
    0.010124  10a 12b -> 34a 16b                                        
    0.010124  12a 10b -> 16a 34b                                        
   -0.019501  12a 10b -> 15a 18b                                        
    0.012301  12a 10b -> 15a 24b                                        
    0.018261  12a 10b -> 15a 32b                                        
    0.010290  12a 10b -> 27a 32b                                        
    0.010482  7a 11b -> 15a 32b                                         
   -0.019501  10a 12b -> 18a 15b                                        
    0.012301  10a 12b -> 24a 15b                                        
    0.018261  10a 12b -> 32a 15b                                        
    0.010290  10a 12b -> 32a 27b                                        
    0.010482  11a 7b -> 32a 15b                                         
   -0.010786  9a 6b -> 21a 13b                                          
   -0.020998  6a 9b -> 19a 13b                                          
   -0.010267  6a 9b -> 23a 13b                                          
    0.011265  11a 9b -> 19a 13b                                         
    0.017087  11a 9b -> 23a 13b                                         
    0.016164  11a 9b -> 29a 13b                                         
    0.011265  6a 9b -> 20a 14b                                          
   -0.019083  11a 9b -> 20a 14b                                         
   -0.020998  9a 6b -> 13a 19b                                          
   -0.010267  9a 6b -> 13a 23b                                          
    0.011265  9a 11b -> 13a 19b                                         
    0.017087  9a 11b -> 13a 23b                                         
    0.016164  9a 11b -> 13a 29b                                         
   -0.010786  6a 9b -> 13a 21b                                          
    0.011265  9a 6b -> 14a 20b                                          
   -0.019083  9a 11b -> 14a 20b                                         
   -0.019130  9a 7b -> 21a 14b                                          
   -0.019130  7a 9b -> 14a 21b                                          
    0.020370  9a 7b -> 16a 15b                                          
   -0.013349  9a 7b -> 16a 17b                                          
    0.020370  7a 9b -> 15a 16b                                          
   -0.013349  7a 9b -> 17a 16b                                          
   -0.016715  10a 9b -> 20a 16b                                         
    0.012115  10a 9b -> 33a 16b                                         
    0.045525  9a 10b -> 13a 15b                                         
    0.014109  9a 10b -> 26a 15b                                         
   -0.010168  9a 10b -> 13a 31b                                         
    0.014422  9a 10b -> 14a 18b                                         
   -0.015446  9a 10b -> 14a 32b                                         
   -0.010017  9a 10b -> 28a 32b                                         
   -0.016715  9a 10b -> 16a 20b                                         
    0.012115  9a 10b -> 16a 33b                                         
    0.045525  10a 9b -> 15a 13b                                         
   -0.010168  10a 9b -> 31a 13b                                         
    0.014109  10a 9b -> 15a 26b                                         
    0.014422  10a 9b -> 18a 14b                                         
   -0.015446  10a 9b -> 32a 14b                                         
   -0.010017  10a 9b -> 32a 28b                                         
    0.011794  5a 9b -> 19a 16b                                          
   -0.011681  9a 8b -> 13a 24b                                          
   -0.021388  9a 12b -> 13a 18b                                         
    0.021024  12a 9b -> 14a 15b                                         
   -0.011136  12a 9b -> 14a 17b                                         
   -0.014018  9a 5b -> 14a 17b                                          
   -0.013061  9a 5b -> 14a 31b                                          
   -0.011202  9a 8b -> 14a 17b                                          
   -0.012621  9a 8b -> 14a 27b                                          
   -0.011411  9a 8b -> 14a 31b                                          
    0.059573  9a 12b -> 14a 15b                                         
    0.015556  9a 12b -> 28a 15b                                         
    0.017953  9a 12b -> 14a 27b                                         
    0.011794  9a 5b -> 16a 19b                                          
   -0.014018  5a 9b -> 17a 14b                                          
   -0.013061  5a 9b -> 31a 14b                                          
   -0.011202  8a 9b -> 17a 14b                                          
   -0.012621  8a 9b -> 27a 14b                                          
   -0.011411  8a 9b -> 31a 14b                                          
    0.059573  12a 9b -> 15a 14b                                         
    0.017953  12a 9b -> 27a 14b                                         
    0.015556  12a 9b -> 15a 28b                                         
    0.021024  9a 12b -> 15a 14b                                         
   -0.011136  9a 12b -> 17a 14b                                         
   -0.011681  8a 9b -> 24a 13b                                          
   -0.021388  12a 9b -> 18a 13b                                         
   -0.014721  12a 7b -> 29a 15b                                         
   -0.011311  12a 7b -> 40a 15b                                         
   -0.010150  12a 7b -> 21a 17b                                         
   -0.012608  7a 12b -> 29a 15b                                         
    0.018549  6a 10b -> 19a 15b                                         
    0.011583  6a 10b -> 23a 15b                                         
   -0.010723  11a 10b -> 19a 15b                                        
   -0.014488  11a 10b -> 23a 15b                                        
   -0.020172  11a 10b -> 29a 15b                                        
    0.012012  11a 10b -> 29a 31b                                        
   -0.011522  10a 11b -> 20a 32b                                        
    0.010217  10a 11b -> 33a 32b                                        
    0.015473  6a 10b -> 13a 34b                                         
   -0.020798  12a 7b -> 14a 16b                                         
    0.014807  12a 7b -> 14a 37b                                         
   -0.028567  7a 12b -> 14a 16b                                         
    0.020081  7a 12b -> 14a 37b                                         
    0.015473  10a 6b -> 34a 13b                                         
   -0.028567  12a 7b -> 16a 14b                                         
    0.020081  12a 7b -> 37a 14b                                         
   -0.020798  7a 12b -> 16a 14b                                         
    0.014807  7a 12b -> 37a 14b                                         
   -0.012608  12a 7b -> 15a 29b                                         
    0.018549  10a 6b -> 15a 19b                                         
    0.011583  10a 6b -> 15a 23b                                         
   -0.010723  10a 11b -> 15a 19b                                        
   -0.014488  10a 11b -> 15a 23b                                        
   -0.020172  10a 11b -> 15a 29b                                        
    0.012012  10a 11b -> 31a 29b                                        
   -0.010150  7a 12b -> 17a 21b                                         
   -0.014721  7a 12b -> 15a 29b                                         
   -0.011311  7a 12b -> 15a 40b                                         
   -0.011522  11a 10b -> 32a 20b                                        
    0.010217  11a 10b -> 32a 33b                                        
    0.010052  8a 11b -> 29a 18b                                         
   -0.012014  8a 11b -> 19a 24b                                         
    0.012672  8a 11b -> 29a 32b                                         
    0.011086  11a 8b -> 29a 18b                                         
    0.011978  11a 8b -> 29a 32b                                         
    0.013386  8a 11b -> 20a 15b                                         
    0.011610  12a 11b -> 20a 15b                                        
    0.012779  10a 7b -> 20a 15b                                         
   -0.017469  10a 7b -> 25a 15b                                         
   -0.013024  10a 7b -> 33a 15b                                         
   -0.014621  10a 7b -> 20a 17b                                         
   -0.011463  7a 10b -> 25a 15b                                         
    0.012183  11a 8b -> 20a 15b                                         
   -0.013326  11a 8b -> 20a 17b                                         
    0.025168  11a 12b -> 20a 15b                                        
   -0.011037  11a 12b -> 33a 15b                                        
   -0.016773  8a 6b -> 13a 16b                                          
   -0.012642  12a 6b -> 13a 16b                                         
   -0.045051  8a 11b -> 13a 16b                                         
   -0.013753  8a 11b -> 38a 16b                                         
    0.011415  8a 11b -> 13a 44b                                         
   -0.032775  12a 11b -> 13a 16b                                        
   -0.022333  6a 8b -> 13a 16b                                          
   -0.040858  11a 8b -> 13a 16b                                         
   -0.016371  11a 8b -> 38a 16b                                         
   -0.019848  6a 12b -> 13a 16b                                         
   -0.033069  11a 12b -> 13a 16b                                        
   -0.011379  11a 12b -> 38a 16b                                        
    0.015527  7a 10b -> 14a 34b                                         
    0.015527  10a 7b -> 34a 14b                                         
   -0.022333  8a 6b -> 16a 13b                                          
   -0.019848  12a 6b -> 16a 13b                                         
   -0.040858  8a 11b -> 16a 13b                                         
   -0.016371  8a 11b -> 16a 38b                                         
   -0.033069  12a 11b -> 16a 13b                                        
   -0.011379  12a 11b -> 16a 38b                                        
   -0.016773  6a 8b -> 16a 13b                                          
   -0.045051  11a 8b -> 16a 13b                                         
    0.011415  11a 8b -> 44a 13b                                         
   -0.013753  11a 8b -> 16a 38b                                         
   -0.012642  6a 12b -> 16a 13b                                         
   -0.032775  11a 12b -> 16a 13b                                        
    0.012183  8a 11b -> 15a 20b                                         
   -0.013326  8a 11b -> 17a 20b                                         
    0.025168  12a 11b -> 15a 20b                                        
   -0.011037  12a 11b -> 15a 33b                                        
   -0.011463  10a 7b -> 15a 25b                                         
    0.012779  7a 10b -> 15a 20b                                         
   -0.014621  7a 10b -> 17a 20b                                         
   -0.017469  7a 10b -> 15a 25b                                         
   -0.013024  7a 10b -> 15a 33b                                         
    0.013386  11a 8b -> 15a 20b                                         
    0.011610  11a 12b -> 15a 20b                                        
    0.011086  8a 11b -> 18a 29b                                         
    0.011978  8a 11b -> 32a 29b                                         
   -0.012014  11a 8b -> 24a 19b                                         
    0.010052  11a 8b -> 18a 29b                                         
    0.012672  11a 8b -> 32a 29b                                         
   -0.010213  8a 12a -> 15a 17a                                         
   -0.010180  6a 7a -> 13a 14a                                          
    0.011519  8a 10a -> 19a 20a                                         
    0.012874  10a 12a -> 13a 14a                                        
    0.029058  10a 12a -> 15a 18a                                        
   -0.013177  10a 12a -> 15a 24a                                        
   -0.013992  10a 12a -> 15a 32a                                        
   -0.010284  10a 12a -> 15a 35a                                        
    0.013702  6a 9a -> 13a 19a                                          
   -0.012221  6a 9a -> 13a 21a                                          
    0.014383  6a 9a -> 13a 23a                                          
    0.016833  9a 11a -> 13a 19a                                         
   -0.014783  9a 11a -> 14a 20a                                         
    0.013352  9a 11a -> 13a 23a                                         
    0.018177  9a 11a -> 13a 29a                                         
   -0.011764  9a 11a -> 16a 32a                                         
    0.012761  7a 9a -> 15a 16a                                          
   -0.010205  7a 9a -> 14a 21a                                          
    0.012065  7a 9a -> 14a 23a                                          
    0.037862  9a 10a -> 13a 15a                                         
    0.012479  9a 10a -> 14a 18a                                         
   -0.013149  9a 10a -> 16a 20a                                         
   -0.011329  9a 10a -> 15a 26a                                         
   -0.012185  9a 10a -> 13a 31a                                         
   -0.015000  9a 10a -> 14a 32a                                         
    0.010018  8a 9a -> 14a 17a                                          
   -0.010307  8a 9a -> 16a 29a                                          
    0.010237  8a 9a -> 14a 31a                                          
    0.038549  9a 12a -> 14a 15a                                         
   -0.014919  9a 12a -> 13a 18a                                         
    0.013724  9a 12a -> 14a 27a                                         
   -0.010479  9a 12a -> 15a 28a                                         
    0.010990  9a 12a -> 14a 31a                                         
   -0.014969  10a 11a -> 15a 19a                                        
   -0.014130  10a 11a -> 15a 23a                                        
   -0.016547  10a 11a -> 15a 29a                                        
   -0.013558  11a 12a -> 15a 20a                                        

 ************************ 2021-07-26 19:16:14 *************************
 Executing goldstone...

 Generation of CC equations in terms of H and T...
 Generation of antisymmetrized Goldstone diagrams...
 Number of diagrams in T^1 equations:    15
 Number of diagrams in T^2 equations:    38
 Number of diagrams in T^3 equations:    53
 Number of diagrams in T^4 equations:    74
 Translation of diagrams to factorized equations...
 Optimizing intermediate calculation...
 Number of floating-point operations per iteration step:   4.1911E+12
 Probable CPU time per iteration step (hours):     41.91
 Required memory (Mbytes):  152584.8
 Number of intermediates:                                 105
 Number of intermediates to be stored:                     45
 Length of intermediate file (Mbytes):    1168.5

 ************************ 2021-07-26 19:16:14 *************************
 Executing xmrcc...

 **********************************************************************
 CC(                     4 ) calculation 
 
 
 Allocation of****** Mbytes of memory...
 Number of spinorbitals:                   104
 Number of alpha electrons:                        8
 Number of beta electrons:                         8
 Spin multiplicity:                     1
 z-component of spin:  0.0
 Spatial symmetry:                      1
 Convergence criterion:  1.0E-05
 Construction of occupation graphs...
 Number of                     0 -fold excitations:                      1
 Number of                     1 -fold excitations:                    118
 Number of                     2 -fold excitations:                  23418
 Number of                     3 -fold excitations:                2539190
 Number of                     4 -fold excitations:              155538420
 Total number of configurations:              158101147
 Calculation of coupling coefficients...
 Length of intermediate file (Mbytes):     735.5
 
 ======================================================================
 
 Memory requirements /Mbyte/: 
               Minimal        Optimal
 Real*8:       3354.6675      3354.6675
 Integer:    228936.6096
 Total:      232291.2771    232291.2771
 

 ************************ 2021-07-26 19:16:25 *************************
 Executing mrcc...

 **********************************************************************
 CCSDTQ calculation                                                     
 
 
 OpenMP parallel version is running.
 Number of CPUs:   4
 Allocation of 3354.7 Mbytes of memory...
 Number of spinorbitals: 104
 Number of alpha electrons:  8
 Number of beta  electrons:  8
 Spin multiplicity: 1
 z-component of spin:  0.0
 Spatial symmetry: 1
 Convergence criterion:  1.0E-05
 Construction of occupation graphs...
 Number of 0-fold excitations: 1
 Number of 1-fold excitations: 118
 Number of 2-fold excitations: 23418
 Number of 3-fold excitations: 2539190
 Number of 4-fold excitations: 155538420
 Total number of determinants: 158101147
 Calculation of coupling coefficients...
 Initial cluster amplitudes are read from unit 16.
 Length of intermediate file (Mbytes):     735.5
 Reading integral list from unit 55...
 Sorting integrals...
 Energy of reference determinant [au]:    -151.161851085446
 Calculation of MP denominators...
 
 Starting CC iteration...
 ======================================================================
 Norm of residual vector:     0.10401600
 CPU time [min]:    74.173                   Wall time [min]:    22.665
 
 Iteration  1  CC energy:  -151.66238785  Energy decrease:   0.00000003
 ======================================================================
 Norm of residual vector:     0.02853535
 CPU time [min]:   152.432                   Wall time [min]:    46.103
 
 Iteration  2  CC energy:  -151.66245935  Energy decrease:   0.00007150
 ======================================================================
 Norm of residual vector:     0.01359267
 CPU time [min]:   230.439                   Wall time [min]:    69.613
 
 Iteration  3  CC energy:  -151.66403373  Energy decrease:   0.00157438
 ======================================================================
 Norm of residual vector:     0.00561417
 CPU time [min]:   307.086                   Wall time [min]:    92.861
 
 Iteration  4  CC energy:  -151.66452318  Energy decrease:   0.00048945
 ======================================================================
