
 Primary working directories    : .
 Secondary working directories  : .
 Wavefunction directory         : /home/dattani/wfu/
 Main file repository           : /home/dattani/Li2_old/CN-/fc/./

 SHA1      : c51528690e241e4bfddaa1efad45229768b24895
 NAME      : 2012.1.15
 ARCHNAME  : Linux/x86_64
 FC        : /usr/local/server/IntelStudio_2013_SP1/composer_xe_2013_sp1.2.144/bin/intel64/ifort
 FCVERSION : 14.0.2
 BLASLIB   : -L/usr/local/server/IntelStudio_2013_SP1/composer_xe_2013_sp1.2.144/mkl/lib/intel64 -lmkl_intel_ilp64 -lmkl_sequential -lmkl_core
 id        : fkfmpg

 Nodes     nprocs
 alnode147    1

 Using customized tuning parameters: mindgm=1; mindgv=20; mindgc=4; mindgr=1; noblas=0; minvec=7
 default implementation of scratch files=df  

  ***,CN-
 geometry={C;N,C,2.2357}
 gthresh,oneint=1e-18,twoint=1e-18                                               !,THROVL=1e-11,THRORTH=2.d-6
 THRESH,ENERGY=1d-16
 
 basis = aug-cc-pVTZ
 
 memory 5880, M
 
 print basis,orbitals=2,civector
 
 wf,charge=-1,spin=0
 
 uhf
 rhf
 {rcisd;maxit,9999}
 {rccsd(t);maxit,9999}
 {uccsd(t);maxit,9999}
 casscf
 {fciqmc;core}

 Variables initialized (781), CPU time= 0.00 sec
 Commands  initialized (547), CPU time= 0.00 sec, 516 directives.
 Default parameters read. Elapsed time= 0.07 sec

 Checking input...
 Passed
1


                                         ***  PROGRAM SYSTEM MOLPRO  ***
                         Copyright, University College Cardiff Consultants Limited, 2008

                                    Version 2012.1 linked Oct 10 2014 10:48:57


 **********************************************************************************************************************************
 LABEL *                                                                                 
 Linux-3.0.101-68-default/alnode147(x86_64) 64 bit serial version                        DATE: 07-Feb-18          TIME: 09:32:40  
 **********************************************************************************************************************************

 SHA1:             c51528690e241e4bfddaa1efad45229768b24895
 **********************************************************************************************************************************

 THRESHOLDS:

 ZERO    =  1.00D-12  ONEINT  =  1.00D-18  TWOINT  =  1.00D-18  PREFAC  =  1.00D-14  LOCALI  =  1.00D-09  EORDER  =  1.00D-04
 ENERGY  =  0.00D+00  ETEST   =  0.00D+00  EDENS   =  0.00D+00  THRDEDEF=  1.00D-06  GRADIENT=  1.00D-02  STEP    =  1.00D-03
 ORBITAL =  1.00D-05  CIVEC   =  1.00D-05  COEFF   =  1.00D-04  PRINTCI =  5.00D-02  PUNCHCI =  9.90D+01  OPTGRAD =  3.00D-04
 OPTENERG=  1.00D-06  OPTSTEP =  3.00D-04  THRGRAD =  1.00D-10  COMPRESS=  1.00D-11  VARMIN  =  1.00D-07  VARMAX  =  1.00D-03
 THRDOUB =  0.00D+00  THRDIV  =  1.00D-05  THRRED  =  1.00D-07  THRPSP  =  1.00D+00  THRDC   =  1.00D-10  THRCS   =  1.00D-10
 THRNRM  =  1.00D-08  THREQ   =  0.00D+00  THRDE   =  1.00D+00  THRREF  =  1.00D-05  SPARFAC =  1.00D+00  THRDLP  =  1.00D-07
 THRDIA  =  1.00D-10  THRDLS  =  1.00D-07  THRGPS  =  0.00D+00  THRKEX  =  0.00D+00  THRDIS  =  2.00D-01  THRVAR  =  1.00D-10
 THRLOC  =  1.00D-06  THRGAP  =  1.00D-06  THRLOCT = -1.00D+00  THRGAPT = -1.00D+00  THRORB  =  1.00D-06  THRMLTP =  0.00D+00
 THRCPQCI=  1.00D-10  KEXTA   =  0.00D+00  THRCOARS=  0.00D+00  SYMTOL  =  1.00D-06  GRADTOL =  1.00D-06  THROVL  =  1.00D-08
 THRORTH =  1.00D-08  GRID    =  1.00D-06  GRIDMAX =  1.00D-03  DTMAX   =  0.00D+00  THROCCDE=  1.00D-01  THROCCDE=  1.00D-01



 THRESHOLDS:

 ZERO    =  1.00D-12  ONEINT  =  1.00D-18  TWOINT  =  1.00D-18  PREFAC  =  1.00D-14  LOCALI  =  1.00D-09  EORDER  =  1.00D-04
 ENERGY  =  1.00D-16  ETEST   =  0.00D+00  EDENS   =  0.00D+00  THRDEDEF=  1.00D-06  GRADIENT=  1.00D-02  STEP    =  1.00D-03
 ORBITAL =  1.00D-05  CIVEC   =  1.00D-05  COEFF   =  1.00D-04  PRINTCI =  5.00D-02  PUNCHCI =  9.90D+01  OPTGRAD =  3.00D-04
 OPTENERG=  1.00D-06  OPTSTEP =  3.00D-04  THRGRAD =  1.00D-10  COMPRESS=  1.00D-11  VARMIN  =  1.00D-07  VARMAX  =  1.00D-03
 THRDOUB =  0.00D+00  THRDIV  =  1.00D-05  THRRED  =  1.00D-07  THRPSP  =  1.00D+00  THRDC   =  1.00D-10  THRCS   =  1.00D-10
 THRNRM  =  1.00D-08  THREQ   =  0.00D+00  THRDE   =  1.00D+00  THRREF  =  1.00D-05  SPARFAC =  1.00D+00  THRDLP  =  1.00D-07
 THRDIA  =  1.00D-10  THRDLS  =  1.00D-07  THRGPS  =  0.00D+00  THRKEX  =  0.00D+00  THRDIS  =  2.00D-01  THRVAR  =  1.00D-10
 THRLOC  =  1.00D-06  THRGAP  =  1.00D-06  THRLOCT = -1.00D+00  THRGAPT = -1.00D+00  THRORB  =  1.00D-06  THRMLTP =  0.00D+00
 THRCPQCI=  1.00D-10  KEXTA   =  0.00D+00  THRCOARS=  0.00D+00  SYMTOL  =  1.00D-06  GRADTOL =  1.00D-06  THROVL  =  1.00D-08
 THRORTH =  1.00D-08  GRID    =  1.00D-06  GRIDMAX =  1.00D-03  DTMAX   =  0.00D+00  THROCCDE=  1.00D-01  THROCCDE=  1.00D-01



 Variable memory set to    8000000 words,  buffer space   230000 words

 SETTING BASIS          =    AUG-CC-PVTZ


 Variable memory set to 5880000000 words,  buffer space   230000 words



 Recomputing integrals since basis changed


 Using spherical harmonics

 Library entry C      S aug-cc-pVTZ          selected for orbital group  1
 Library entry C      P aug-cc-pVTZ          selected for orbital group  1
 Library entry C      D aug-cc-pVTZ          selected for orbital group  1
 Library entry C      F aug-cc-pVTZ          selected for orbital group  1
 Library entry N      S aug-cc-pVTZ          selected for orbital group  2
 Library entry N      P aug-cc-pVTZ          selected for orbital group  2
 Library entry N      D aug-cc-pVTZ          selected for orbital group  2
 Library entry N      F aug-cc-pVTZ          selected for orbital group  2

1PROGRAM * SEWARD (Integral evaluation for generally contracted gaussian basis sets)     Author: Roland Lindh, 1990

 Geometry written to block  1 of record 700

 Orientation using atomic masses  
 Molecule type: Linear
 Symmetry elements: X,Y
 Rotational constants:      55.8395330     55.8395330      0.0000000 GHz  (calculated with average atomic masses)

 Point group  C2v 



 ATOMIC COORDINATES

 NR  ATOM    CHARGE       X              Y              Z

   1  C       6.00    0.000000000    0.000000000   -1.203595214
   2  N       7.00    0.000000000    0.000000000    1.032104786

 Bond lengths in Bohr (Angstrom)

 1-2  2.235700000
     ( 1.183081486)


 BASIS DATA

   Nr Sym  Nuc  Type         Exponents   Contraction coefficients

    1.1 A1    1  1s        8236.000000     0.000531   -0.000113    0.000000    0.000000
    2.1 A1                 1235.000000     0.004108   -0.000878    0.000000    0.000000
    3.1 A1                  280.800000     0.021087   -0.004540    0.000000    0.000000
    4.1 A1                   79.270000     0.081853   -0.018133    0.000000    0.000000
                             25.590000     0.234817   -0.055760    0.000000    0.000000
                              8.997000     0.434401   -0.126895    0.000000    0.000000
                              3.319000     0.346129   -0.170352    0.000000    0.000000
                              0.905900     0.039378    0.140382    1.000000    0.000000
                              0.364300    -0.008983    0.598684    0.000000    0.000000
                              0.128500     0.002385    0.395389    0.000000    1.000000
    5.1 A1    1  1s           0.044020     1.000000
    6.1 A1    1  2pz         18.710000     0.014031    0.000000    0.000000
    7.1 A1                    4.133000     0.086866    0.000000    0.000000
    8.1 A1                    1.200000     0.290216    0.000000    0.000000
                              0.382700     0.501008    1.000000    0.000000
                              0.120900     0.343406    0.000000    1.000000
    9.1 A1    1  2pz          0.035690     1.000000
   10.1 A1    1  3d0          1.097000     1.000000
   11.1 A1    1  3d2+         1.097000     1.000000
   12.1 A1    1  3d0          0.318000     1.000000
   13.1 A1    1  3d2+         0.318000     1.000000
   14.1 A1    1  3d0          0.100000     1.000000
   15.1 A1    1  3d2+         0.100000     1.000000
   16.1 A1    1  4f0          0.761000     1.000000
   17.1 A1    1  4f2+         0.761000     1.000000
   18.1 A1    1  4f0          0.268000     1.000000
   19.1 A1    1  4f2+         0.268000     1.000000
   20.1 A1    2  1s       11420.000000     0.000523   -0.000115    0.000000    0.000000
   21.1 A1                 1712.000000     0.004045   -0.000895    0.000000    0.000000
   22.1 A1                  389.300000     0.020775   -0.004624    0.000000    0.000000
   23.1 A1                  110.000000     0.080727   -0.018528    0.000000    0.000000
                             35.570000     0.233074   -0.057339    0.000000    0.000000
                             12.540000     0.433501   -0.132076    0.000000    0.000000
                              4.644000     0.347472   -0.172510    0.000000    0.000000
                              1.293000     0.041262    0.151814    1.000000    0.000000
                              0.511800    -0.008508    0.599944    0.000000    0.000000
                              0.178700     0.002384    0.387462    0.000000    1.000000
   24.1 A1    2  1s           0.057600     1.000000
   25.1 A1    2  2pz         26.630000     0.014670    0.000000    0.000000
   26.1 A1                    5.948000     0.091764    0.000000    0.000000
   27.1 A1                    1.742000     0.298683    0.000000    0.000000
                              0.555000     0.498487    1.000000    0.000000
                              0.172500     0.337023    0.000000    1.000000
   28.1 A1    2  2pz          0.049100     1.000000
   29.1 A1    2  3d0          1.654000     1.000000
   30.1 A1    2  3d2+         1.654000     1.000000
   31.1 A1    2  3d0          0.469000     1.000000
   32.1 A1    2  3d2+         0.469000     1.000000
   33.1 A1    2  3d0          0.151000     1.000000
   34.1 A1    2  3d2+         0.151000     1.000000
   35.1 A1    2  4f0          1.093000     1.000000
   36.1 A1    2  4f2+         1.093000     1.000000
   37.1 A1    2  4f0          0.364000     1.000000
   38.1 A1    2  4f2+         0.364000     1.000000
    1.2 B1    1  2px         18.710000     0.014031    0.000000    0.000000
    2.2 B1                    4.133000     0.086866    0.000000    0.000000
    3.2 B1                    1.200000     0.290216    0.000000    0.000000
                              0.382700     0.501008    1.000000    0.000000
                              0.120900     0.343406    0.000000    1.000000
    4.2 B1    1  2px          0.035690     1.000000
    5.2 B1    1  3d1+         1.097000     1.000000
    6.2 B1    1  3d1+         0.318000     1.000000
    7.2 B1    1  3d1+         0.100000     1.000000
    8.2 B1    1  4f1+         0.761000     1.000000
    9.2 B1    1  4f3+         0.761000     1.000000
   10.2 B1    1  4f1+         0.268000     1.000000
   11.2 B1    1  4f3+         0.268000     1.000000
   12.2 B1    2  2px         26.630000     0.014670    0.000000    0.000000
   13.2 B1                    5.948000     0.091764    0.000000    0.000000
   14.2 B1                    1.742000     0.298683    0.000000    0.000000
                              0.555000     0.498487    1.000000    0.000000
                              0.172500     0.337023    0.000000    1.000000
   15.2 B1    2  2px          0.049100     1.000000
   16.2 B1    2  3d1+         1.654000     1.000000
   17.2 B1    2  3d1+         0.469000     1.000000
   18.2 B1    2  3d1+         0.151000     1.000000
   19.2 B1    2  4f1+         1.093000     1.000000
   20.2 B1    2  4f3+         1.093000     1.000000
   21.2 B1    2  4f1+         0.364000     1.000000
   22.2 B1    2  4f3+         0.364000     1.000000
    1.3 B2    1  2py         18.710000     0.014031    0.000000    0.000000
    2.3 B2                    4.133000     0.086866    0.000000    0.000000
    3.3 B2                    1.200000     0.290216    0.000000    0.000000
                              0.382700     0.501008    1.000000    0.000000
                              0.120900     0.343406    0.000000    1.000000
    4.3 B2    1  2py          0.035690     1.000000
    5.3 B2    1  3d1-         1.097000     1.000000
    6.3 B2    1  3d1-         0.318000     1.000000
    7.3 B2    1  3d1-         0.100000     1.000000
    8.3 B2    1  4f1-         0.761000     1.000000
    9.3 B2    1  4f3-         0.761000     1.000000
   10.3 B2    1  4f1-         0.268000     1.000000
   11.3 B2    1  4f3-         0.268000     1.000000
   12.3 B2    2  2py         26.630000     0.014670    0.000000    0.000000
   13.3 B2                    5.948000     0.091764    0.000000    0.000000
   14.3 B2                    1.742000     0.298683    0.000000    0.000000
                              0.555000     0.498487    1.000000    0.000000
                              0.172500     0.337023    0.000000    1.000000
   15.3 B2    2  2py          0.049100     1.000000
   16.3 B2    2  3d1-         1.654000     1.000000
   17.3 B2    2  3d1-         0.469000     1.000000
   18.3 B2    2  3d1-         0.151000     1.000000
   19.3 B2    2  4f1-         1.093000     1.000000
   20.3 B2    2  4f3-         1.093000     1.000000
   21.3 B2    2  4f1-         0.364000     1.000000
   22.3 B2    2  4f3-         0.364000     1.000000
    1.4 A2    1  3d2-         1.097000     1.000000
    2.4 A2    1  3d2-         0.318000     1.000000
    3.4 A2    1  3d2-         0.100000     1.000000
    4.4 A2    1  4f2-         0.761000     1.000000
    5.4 A2    1  4f2-         0.268000     1.000000
    6.4 A2    2  3d2-         1.654000     1.000000
    7.4 A2    2  3d2-         0.469000     1.000000
    8.4 A2    2  3d2-         0.151000     1.000000
    9.4 A2    2  4f2-         1.093000     1.000000
   10.4 A2    2  4f2-         0.364000     1.000000

 NUCLEAR CHARGE:                   13
 NUMBER OF PRIMITIVE AOS:         134
 NUMBER OF SYMMETRY AOS:          116
 NUMBER OF CONTRACTIONS:           92   (  38A1  +  22B1  +  22B2  +  10A2  )
 NUMBER OF CORE ORBITALS:           2   (   2A1  +   0B1  +   0B2  +   0A2  )
 NUMBER OF VALENCE ORBITALS:        8   (   4A1  +   2B1  +   2B2  +   0A2  )


 NUCLEAR REPULSION ENERGY   18.78606253

 EXTRA SYMMETRY OF AOS IN SYMMETRY 1:   1 1 1 1 1 1 1 1 1 1   2 1 2 1 2 1 2 1 2 1   1 1 1 1 1 1 1 1 1 2   1 2 1 2 1 2 1 2
 EXTRA SYMMETRY OF AOS IN SYMMETRY 2:   1 1 1 1 1 1 1 1 2 1   2 1 1 1 1 1 1 1 1 2   1 2
 EXTRA SYMMETRY OF AOS IN SYMMETRY 3:   1 1 1 1 1 1 1 1 2 1   2 1 1 1 1 1 1 1 1 2   1 2

 Eigenvalues of metric

         1 0.272E-03 0.172E-02 0.191E-02 0.285E-02 0.149E-01 0.217E-01 0.365E-01 0.580E-01
         2 0.266E-02 0.169E-01 0.366E-01 0.475E-01 0.896E-01 0.117E+00 0.172E+00 0.245E+00
         3 0.266E-02 0.169E-01 0.366E-01 0.475E-01 0.896E-01 0.117E+00 0.172E+00 0.245E+00
         4 0.603E-01 0.147E+00 0.313E+00 0.448E+00 0.520E+00 0.771E+00 0.105E+01 0.174E+01


 Contracted 2-electron integrals neglected if value below      1.0D-18
 AO integral compression algorithm  1   Integral accuracy      1.0D-18

     22.282 MB (compressed) written to integral file ( 87.7%)


 NUMBER OF SORTED TWO-ELECTRON INTEGRALS:    2415093.     BUFFER LENGTH:  32768
 NUMBER OF SEGMENTS:   1  SEGMENT LENGTH:    2415093      RECORD LENGTH: 524288

 Memory used in sort:       2.97 MW

 SORT1 READ     3206032. AND WROTE     1981148. INTEGRALS IN      6 RECORDS. CPU TIME:     0.05 SEC, REAL TIME:     0.06 SEC
 SORT2 READ     1981148. AND WROTE     2415093. INTEGRALS IN     85 RECORDS. CPU TIME:     0.06 SEC, REAL TIME:     0.08 SEC

 FILE SIZES:   FILE 1:    30.0 MBYTE,  FILE 4:    25.2 MBYTE,   TOTAL:     55.2 MBYTE

 OPERATOR DM      FOR CENTER  0  COORDINATES:    0.000000    0.000000    0.000000


 **********************************************************************************************************************************
 DATASETS  * FILE   NREC   LENGTH (MB)   RECORD NAMES
              1      19       23.45       500      610      700      900      950      970     1000      129      960     1100   
                                          VAR    BASINP    GEOM    SYMINP    ZMAT    AOBASIS   BASIS     P2S    ABASIS      S 
                                         1400     1410     1200     1210     1080     1600     1650     1300     1700   
                                           T        V       H0       H01     AOSYM     SMH    MOLCAS    ERIS     OPER   

 PROGRAMS   *        TOTAL       INT
 CPU TIMES  *         0.66      0.57
 REAL TIME  *         1.62 SEC
 DISK USED  *        55.49 MB      
 **********************************************************************************************************************************

1PROGRAM * UHF-SCF       Authors: W. Meyer, H.-J. Werner


 NUMBER OF ELECTRONS:       7+    7-
 CONVERGENCE THRESHOLDS:    1.00E-06 (Density)    1.00E-17 (Energy)
 MAX. NUMBER OF ITERATIONS:       60
 INTERPOLATION TYPE:            DIIS
 INTERPOLATION STEPS:              2 (START)      1 (STEP)
 LEVEL SHIFTS:                  0.20 (ALPHA)   0.20 (BETA) 



 Orbital guess generated from atomic densities. Full valence occupancy:    6   2   2   0

 Molecular orbital dump at record        2200.2

 Initial alpha occupation   5   1   1   0
 Initial beta  occupation   5   1   1   0

 ITERATION    DDIFF          GRAD             ENERGY        2-EL.EN.            DIPOLE MOMENTS         DIIS
    1      0.000D+00      0.000D+00       -92.30928797    112.727594    0.00000    0.00000    0.08694    0
    2      0.112D-01      0.410D-02       -92.33635915    110.315339    0.00000    0.00000    0.22745    1
    3      0.317D-02      0.140D-02       -92.33955441    110.200533    0.00000    0.00000    0.15319    2
    4      0.210D-02      0.591D-03       -92.34079742    109.955925    0.00000    0.00000    0.15691    3
    5      0.154D-02      0.257D-03       -92.34111218    109.878856    0.00000    0.00000    0.14754    4
    6      0.167D-02      0.101D-03       -92.34118002    109.838568    0.00000    0.00000    0.14609    5
    7      0.762D-03      0.241D-04       -92.34118380    109.833410    0.00000    0.00000    0.14560    6
    8      0.175D-03      0.475D-05       -92.34118395    109.832957    0.00000    0.00000    0.14587    7
    9      0.228D-04      0.124D-05       -92.34118396    109.832980    0.00000    0.00000    0.14597    6
   10      0.589D-05      0.376D-06       -92.34118396    109.833000    0.00000    0.00000    0.14601    6
   11      0.184D-05      0.109D-06       -92.34118396    109.833008    0.00000    0.00000    0.14600    5
   12      0.804D-06      0.347D-07       -92.34118396    109.833010    0.00000    0.00000    0.14600    6
   13      0.180D-06      0.924D-08       -92.34118396    109.833012    0.00000    0.00000    0.14600    6
   14      0.887D-07      0.295D-08       -92.34118396    109.833012    0.00000    0.00000    0.14600    6
 
 Final alpha occupancy:   5   1   1   0
 Final beta  occupancy:   5   1   1   0

 !UHF STATE 1.1 Energy                -92.341183956812
 Nuclear energy                        18.78606253
 One-electron energy                 -166.04375256
 Two-electron energy                   54.91650607
 Virial quotient                       -1.00203303
 !UHF STATE 1.1 Dipole moment           0.00000000     0.00000000     0.14599816
 Dipole moment /Debye                   0.00000000     0.00000000     0.37106602

 ELECTRON ORBITALS FOR POSITIVE SPIN
 ===================================


   Orb  Occ    Energy  Couls-En    Coefficients

                                   1 1s      1 1s      1 1s      1 1s      1 1s      1 2pz     1 2pz     1 2pz     1 2pz     1 3d0  
                                   1 3d2+    1 3d0     1 3d2+    1 3d0     1 3d2+    1 4f0     1 4f2+    1 4f0     1 4f2+    2 1s   
                                   2 1s      2 1s      2 1s      2 1s      2 2pz     2 2pz     2 2pz     2 2pz     2 3d0     2 3d2+ 
                                   2 3d0     2 3d2+    2 3d0     2 3d2+    2 4f0     2 4f2+    2 4f0     2 4f2+ 

   1.1   +   -15.2901  -42.4019  0.000064 -0.000042  0.000422 -0.006268 -0.000682  0.001145 -0.001215 -0.003995 -0.000078 -0.000181
                                -0.000000 -0.000358  0.000000 -0.000810 -0.000000 -0.000411 -0.000000  0.000134  0.000000  0.998945
                                -0.001951  0.001203  0.008666  0.000908 -0.003486  0.001676 -0.001109 -0.000017  0.000557  0.000000
                                 0.000110 -0.000000  0.000013  0.000000 -0.000201 -0.000000  0.000232  0.000000

   2.1   +   -10.9735  -32.0372  0.999535  0.001488  0.001640  0.005605  0.002007  0.003825 -0.000689  0.001456  0.000575  0.000991
                                -0.000000  0.000510  0.000000  0.000638  0.000000  0.000384  0.000000 -0.000002 -0.000000 -0.000641
                                 0.000658  0.000212 -0.005787 -0.003986 -0.001285  0.001238  0.002584  0.000727  0.000061 -0.000000
                                -0.000940  0.000000 -0.000080 -0.000000 -0.000024  0.000000  0.000488 -0.000000

   3.1   +    -0.9226   -9.4894 -0.019232  0.518766 -0.005308 -0.044883  0.038452  0.349245 -0.043579 -0.097488  0.000300  0.024654
                                -0.000000  0.010528  0.000000 -0.010284 -0.000000  0.008136  0.000000 -0.008940  0.000000 -0.013724
                                 0.742158 -0.006134 -0.177904 -0.068862 -0.281258  0.027118  0.150474  0.026921  0.013846 -0.000000
                                 0.009769 -0.000000 -0.027644  0.000000 -0.004181  0.000000  0.002192  0.000000

   4.1   +    -0.3431   -7.0890  0.001782 -0.605341  0.005557 -0.047852 -0.065172  0.003715 -0.001798  0.022529 -0.001908 -0.008913
                                 0.000000 -0.006542 -0.000000  0.000315 -0.000000 -0.005462 -0.000000  0.002860 -0.000000  0.003154
                                 0.531110 -0.001839  0.179910  0.131485  0.573760 -0.035785 -0.066394  0.007406 -0.008255 -0.000000
                                -0.004223  0.000000  0.009223  0.000000  0.001069  0.000000 -0.001204 -0.000000

   5.1   +    -0.1934   -6.2617 -0.002242 -0.377224  0.007309 -0.188394 -0.146840  0.705624 -0.052450 -0.078684  0.024270  0.019270
                                 0.000000  0.008351 -0.000000 -0.011383 -0.000000  0.005454  0.000000 -0.007281 -0.000000 -0.001220
                                 0.001379  0.001899 -0.079971 -0.047822 -0.513214  0.029928  0.039942 -0.025796  0.010457  0.000000
                                 0.010875  0.000000 -0.006948  0.000000 -0.002640  0.000000 -0.001458 -0.000000

   6.1   0     0.2093   -1.5609  0.033141  0.122031  0.003940  3.623171  7.553154  0.010927  0.283791  2.033566  2.652124  0.006547
                                -0.000000  0.139283  0.000000  0.525329 -0.000000  0.005555  0.000000  0.029993 -0.000000  0.004836
                                -0.065740  0.007881 -2.304853 -9.147565 -0.079185  0.076836  1.303452  1.679229  0.003094  0.000000
                                -0.083181 -0.000000 -0.207290  0.000000  0.006043  0.000000  0.017004  0.000000

   7.1   0     0.2454   -1.7058 -0.025025  0.058927  0.020507 -1.383876 -3.256900 -0.155550 -0.024322 -1.041274  1.037771  0.007596
                                 0.000000 -0.120036 -0.000000  0.083093 -0.000000 -0.005269 -0.000000 -0.012543 -0.000000 -0.001911
                                -0.000895  0.005331  0.887009  2.891692  0.092707 -0.028886 -0.473697 -1.914196  0.001908 -0.000000
                                -0.013708  0.000000  0.177197  0.000000  0.000926  0.000000  0.004191 -0.000000

                                   1 2px     1 2px     1 2px     1 2px     1 3d1+    1 3d1+    1 3d1+    1 4f1+    1 4f3+    1 4f1+ 
                                   1 4f3+    2 2px     2 2px     2 2px     2 2px     2 3d1+    2 3d1+    2 3d1+    2 4f1+    2 4f3+ 
                                   2 4f1+    2 4f3+ 

   1.2   +    -0.1913   -6.9240  0.511254 -0.020288 -0.027368  0.017514  0.022309  0.031938  0.004947  0.007527 -0.000000  0.001265
                                -0.000000  0.653329 -0.008397  0.021486  0.059090 -0.013790 -0.027323 -0.006690  0.005905 -0.000000
                                 0.001221 -0.000000

   2.2   0     0.2334   -1.6626 -0.051647  0.040093 -0.134568  2.092492 -0.001974 -0.078596  0.244940 -0.011273  0.000000 -0.004028
                                 0.000000 -0.132784  0.023577  0.002710 -1.330578  0.004781 -0.038493  0.058574  0.000959 -0.000000
                                 0.010205  0.000000

   3.2   0     0.3125   -1.8348 -0.147707 -0.173458 -2.026359 -1.534686  0.003862 -0.288599 -0.972934 -0.005824  0.000000 -0.137592
                                -0.000000 -0.091800  0.057132  1.191494  3.084076  0.008936 -0.077205 -0.832816 -0.008108  0.000000
                                 0.111650  0.000000

                                   1 2py     1 2py     1 2py     1 2py     1 3d1-    1 3d1-    1 3d1-    1 4f1-    1 4f3-    1 4f1- 
                                   1 4f3-    2 2py     2 2py     2 2py     2 2py     2 3d1-    2 3d1-    2 3d1-    2 4f1-    2 4f3- 
                                   2 4f1-    2 4f3- 

   1.3   +    -0.1913   -6.9240  0.511254 -0.020288 -0.027368  0.017514  0.022309  0.031938  0.004947  0.007527  0.000000  0.001265
                                 0.000000  0.653329 -0.008397  0.021486  0.059090 -0.013790 -0.027323 -0.006690  0.005905  0.000000
                                 0.001221  0.000000

   2.3   0     0.2334   -1.6626 -0.051647  0.040093 -0.134568  2.092492 -0.001974 -0.078596  0.244940 -0.011273 -0.000000 -0.004028
                                -0.000000 -0.132784  0.023577  0.002710 -1.330578  0.004781 -0.038493  0.058574  0.000959  0.000000
                                 0.010205 -0.000000

   3.3   0     0.3125   -1.8348 -0.147707 -0.173458 -2.026359 -1.534686  0.003862 -0.288599 -0.972934 -0.005824 -0.000000 -0.137592
                                 0.000000 -0.091800  0.057132  1.191494  3.084076  0.008936 -0.077205 -0.832816 -0.008108 -0.000000
                                 0.111650  0.000000

                                   1 3d2-    1 3d2-    1 3d2-    1 4f2-    1 4f2-    2 3d2-    2 3d2-    2 3d2-    2 4f2-    2 4f2- 


   1.4   0     0.5133   -2.2028  0.037888 -0.119649  1.205715 -0.008362  0.074642  0.004461  0.022920 -0.223433 -0.010287  0.036034

   2.4   0     0.7737   -2.1550  0.017104 -0.135952 -0.982433  0.030630 -0.273970  0.034378 -0.085157  1.690711  0.021393 -0.169147

 ELECTRON ORBITALS FOR NEGATIVE SPIN
 ===================================


   Orb  Occ    Energy  Couls-En    Coefficients

                                   1 1s      1 1s      1 1s      1 1s      1 1s      1 2pz     1 2pz     1 2pz     1 2pz     1 3d0  
                                   1 3d2+    1 3d0     1 3d2+    1 3d0     1 3d2+    1 4f0     1 4f2+    1 4f0     1 4f2+    2 1s   
                                   2 1s      2 1s      2 1s      2 1s      2 2pz     2 2pz     2 2pz     2 2pz     2 3d0     2 3d2+ 
                                   2 3d0     2 3d2+    2 3d0     2 3d2+    2 4f0     2 4f2+    2 4f0     2 4f2+ 

   1.1   -   -15.2901  -42.4019  0.000064 -0.000042  0.000422 -0.006268 -0.000682  0.001145 -0.001215 -0.003995 -0.000078 -0.000181
                                -0.000000 -0.000358  0.000000 -0.000810 -0.000000 -0.000411 -0.000000  0.000134  0.000000  0.998945
                                -0.001951  0.001203  0.008666  0.000908 -0.003486  0.001676 -0.001109 -0.000017  0.000557  0.000000
                                 0.000110 -0.000000  0.000013  0.000000 -0.000201 -0.000000  0.000232  0.000000

   2.1   -   -10.9735  -32.0372  0.999535  0.001488  0.001640  0.005605  0.002007  0.003825 -0.000689  0.001456  0.000575  0.000991
                                -0.000000  0.000510  0.000000  0.000638  0.000000  0.000384  0.000000 -0.000002 -0.000000 -0.000641
                                 0.000658  0.000212 -0.005787 -0.003986 -0.001285  0.001238  0.002584  0.000727  0.000061 -0.000000
                                -0.000940  0.000000 -0.000080 -0.000000 -0.000024  0.000000  0.000488 -0.000000

   3.1   -    -0.9226   -9.4894 -0.019232  0.518766 -0.005308 -0.044883  0.038452  0.349245 -0.043579 -0.097488  0.000300  0.024654
                                -0.000000  0.010528  0.000000 -0.010284 -0.000000  0.008136  0.000000 -0.008940  0.000000 -0.013724
                                 0.742158 -0.006134 -0.177904 -0.068862 -0.281258  0.027118  0.150474  0.026921  0.013846 -0.000000
                                 0.009769 -0.000000 -0.027644  0.000000 -0.004181  0.000000  0.002192  0.000000

   4.1   -    -0.3431   -7.0890  0.001782 -0.605341  0.005557 -0.047852 -0.065172  0.003715 -0.001798  0.022529 -0.001908 -0.008913
                                 0.000000 -0.006542 -0.000000  0.000315 -0.000000 -0.005462 -0.000000  0.002860 -0.000000  0.003154
                                 0.531110 -0.001839  0.179910  0.131485  0.573760 -0.035785 -0.066394  0.007406 -0.008255 -0.000000
                                -0.004223  0.000000  0.009223  0.000000  0.001069  0.000000 -0.001204 -0.000000

   5.1   -    -0.1934   -6.2617 -0.002242 -0.377224  0.007309 -0.188394 -0.146840  0.705624 -0.052450 -0.078684  0.024270  0.019270
                                 0.000000  0.008351 -0.000000 -0.011383 -0.000000  0.005454  0.000000 -0.007281 -0.000000 -0.001220
                                 0.001379  0.001899 -0.079971 -0.047822 -0.513214  0.029928  0.039942 -0.025796  0.010457  0.000000
                                 0.010875  0.000000 -0.006948  0.000000 -0.002640  0.000000 -0.001458 -0.000000

   6.1   0     0.2093   -1.5609  0.033141  0.122031  0.003940  3.623171  7.553154  0.010927  0.283791  2.033566  2.652124  0.006547
                                -0.000000  0.139283  0.000000  0.525329 -0.000000  0.005555  0.000000  0.029993 -0.000000  0.004836
                                -0.065740  0.007881 -2.304853 -9.147565 -0.079185  0.076836  1.303452  1.679229  0.003094  0.000000
                                -0.083181 -0.000000 -0.207290  0.000000  0.006043  0.000000  0.017004  0.000000

   7.1   0     0.2454   -1.7058 -0.025025  0.058927  0.020507 -1.383876 -3.256900 -0.155550 -0.024322 -1.041274  1.037771  0.007596
                                 0.000000 -0.120036 -0.000000  0.083093 -0.000000 -0.005269 -0.000000 -0.012543 -0.000000 -0.001911
                                -0.000895  0.005331  0.887009  2.891692  0.092707 -0.028886 -0.473697 -1.914196  0.001908 -0.000000
                                -0.013708  0.000000  0.177197  0.000000  0.000926  0.000000  0.004191 -0.000000

                                   1 2px     1 2px     1 2px     1 2px     1 3d1+    1 3d1+    1 3d1+    1 4f1+    1 4f3+    1 4f1+ 
                                   1 4f3+    2 2px     2 2px     2 2px     2 2px     2 3d1+    2 3d1+    2 3d1+    2 4f1+    2 4f3+ 
                                   2 4f1+    2 4f3+ 

   1.2   -    -0.1913   -6.9240  0.511254 -0.020288 -0.027368  0.017514  0.022309  0.031938  0.004947  0.007527 -0.000000  0.001265
                                -0.000000  0.653329 -0.008397  0.021486  0.059090 -0.013790 -0.027323 -0.006690  0.005905 -0.000000
                                 0.001221 -0.000000

   2.2   0     0.2334   -1.6626 -0.051647  0.040093 -0.134568  2.092492 -0.001974 -0.078596  0.244940 -0.011273  0.000000 -0.004028
                                 0.000000 -0.132784  0.023577  0.002710 -1.330578  0.004781 -0.038493  0.058574  0.000959 -0.000000
                                 0.010205  0.000000

   3.2   0     0.3125   -1.8348 -0.147707 -0.173458 -2.026359 -1.534686  0.003862 -0.288599 -0.972934 -0.005824  0.000000 -0.137592
                                -0.000000 -0.091800  0.057132  1.191494  3.084076  0.008936 -0.077205 -0.832816 -0.008108  0.000000
                                 0.111650  0.000000

                                   1 2py     1 2py     1 2py     1 2py     1 3d1-    1 3d1-    1 3d1-    1 4f1-    1 4f3-    1 4f1- 
                                   1 4f3-    2 2py     2 2py     2 2py     2 2py     2 3d1-    2 3d1-    2 3d1-    2 4f1-    2 4f3- 
                                   2 4f1-    2 4f3- 

   1.3   -    -0.1913   -6.9240  0.511254 -0.020288 -0.027368  0.017514  0.022309  0.031938  0.004947  0.007527  0.000000  0.001265
                                 0.000000  0.653329 -0.008397  0.021486  0.059090 -0.013790 -0.027323 -0.006690  0.005905  0.000000
                                 0.001221  0.000000

   2.3   0     0.2334   -1.6626 -0.051647  0.040093 -0.134568  2.092492 -0.001974 -0.078596  0.244940 -0.011273 -0.000000 -0.004028
                                -0.000000 -0.132784  0.023577  0.002710 -1.330578  0.004781 -0.038493  0.058574  0.000959  0.000000
                                 0.010205 -0.000000

   3.3   0     0.3125   -1.8348 -0.147707 -0.173458 -2.026359 -1.534686  0.003862 -0.288599 -0.972934 -0.005824 -0.000000 -0.137592
                                 0.000000 -0.091800  0.057132  1.191494  3.084076  0.008936 -0.077205 -0.832816 -0.008108 -0.000000
                                 0.111650  0.000000

                                   1 3d2-    1 3d2-    1 3d2-    1 4f2-    1 4f2-    2 3d2-    2 3d2-    2 3d2-    2 4f2-    2 4f2- 


   1.4   0     0.5133   -2.2028  0.037888 -0.119649  1.205715 -0.008362  0.074642  0.004461  0.022920 -0.223433 -0.010287  0.036034

   2.4   0     0.7737   -2.1550  0.017104 -0.135952 -0.982433  0.030630 -0.273970  0.034378 -0.085157  1.690711  0.021393 -0.169147

 HOMO      1.2    -0.191297 =      -5.2054eV
 LUMO      6.1     0.209339 =       5.6964eV
 LUMO-HOMO         0.400636 =      10.9019eV

 EXPECTATION VALUE OF S**2:             0.00000000

 Natural orbitals saved to record    2200.2 (Orbital set 3)

 Orbital spaces for UNO-CAS (Min. occupation: 0.020  Max. occupation: 1.980):

 Closed:        5   1   1   0
 Active:        0   0   0   0


 **********************************************************************************************************************************
 DATASETS  * FILE   NREC   LENGTH (MB)   RECORD NAMES
              1      19       23.45       500      610      700      900      950      970     1000      129      960     1100   
                                          VAR    BASINP    GEOM    SYMINP    ZMAT    AOBASIS   BASIS     P2S    ABASIS      S 
                                         1400     1410     1200     1210     1080     1600     1650     1300     1700   
                                           T        V       H0       H01     AOSYM     SMH    MOLCAS    ERIS     OPER   

              2       4        0.41       700     1000      520     2200   
                                         GEOM     BASIS   MCVARS     UHF  

 PROGRAMS   *        TOTAL       UHF       INT
 CPU TIMES  *         0.87      0.21      0.57
 REAL TIME  *         1.87 SEC
 DISK USED  *        55.49 MB      
 **********************************************************************************************************************************

1PROGRAM * RHF-SCF (CLOSED SHELL)       Authors: W. Meyer, H.-J. Werner


 NUMBER OF ELECTRONS:       7+    7-
 CONVERGENCE THRESHOLDS:    1.00E-06 (Density)    1.00E-17 (Energy)
 MAX. NUMBER OF ITERATIONS:       60
 INTERPOLATION TYPE:            DIIS
 INTERPOLATION STEPS:              2 (START)      1 (STEP)
 LEVEL SHIFTS:                  0.00 (CLOSED)  0.00 (OPEN) 



 Molecular orbitals read from record     2200.2  Type=UHF/NATURAL (state 1.1)

 Molecular orbital dump at record        2100.2

 ITERATION    DDIFF          GRAD             ENERGY        2-EL.EN.            DIPOLE MOMENTS         DIIS   ORB.
    1      0.000D+00      0.000D+00       -92.34118396    109.833012    0.00000    0.00000    0.14600    0    start
    2      0.000D+00      0.244D-08       -92.34118396    109.833012    0.00000    0.00000    0.14600    0    orth

 Final occupancy:   5   1   1   0

 !RHF STATE 1.1 Energy                -92.341183956813
 Nuclear energy                        18.78606253
 One-electron energy                 -166.04375263
 Two-electron energy                   54.91650614
 Virial quotient                       -1.00203303
 !RHF STATE 1.1 Dipole moment           0.00000000     0.00000000     0.14599803
 Dipole moment /Debye                   0.00000000     0.00000000     0.37106568

 ELECTRON ORBITALS
 =================


   Orb  Occ    Energy  Couls-En    Coefficients

                                   1 1s      1 1s      1 1s      1 1s      1 1s      1 2pz     1 2pz     1 2pz     1 2pz     1 3d0  
                                   1 3d2+    1 3d0     1 3d2+    1 3d0     1 3d2+    1 4f0     1 4f2+    1 4f0     1 4f2+    2 1s   
                                   2 1s      2 1s      2 1s      2 1s      2 2pz     2 2pz     2 2pz     2 2pz     2 3d0     2 3d2+ 
                                   2 3d0     2 3d2+    2 3d0     2 3d2+    2 4f0     2 4f2+    2 4f0     2 4f2+ 

   1.1   2   -15.2901  -42.4019  0.000064 -0.000042  0.000422 -0.006268 -0.000682  0.001145 -0.001215 -0.003995 -0.000078 -0.000181
                                -0.000000 -0.000358  0.000000 -0.000810 -0.000000 -0.000411 -0.000000  0.000134  0.000000  0.998945
                                -0.001951  0.001203  0.008666  0.000908 -0.003486  0.001676 -0.001109 -0.000017  0.000557 -0.000000
                                 0.000110 -0.000000  0.000013  0.000000 -0.000201 -0.000000  0.000232 -0.000000

   2.1   2   -10.9735  -32.0372  0.999535  0.001488  0.001640  0.005605  0.002007  0.003825 -0.000689  0.001456  0.000575  0.000991
                                -0.000000  0.000510  0.000000  0.000638 -0.000000  0.000384  0.000000 -0.000002 -0.000000 -0.000641
                                 0.000658  0.000212 -0.005787 -0.003986 -0.001285  0.001238  0.002584  0.000727  0.000061 -0.000000
                                -0.000940 -0.000000 -0.000080 -0.000000 -0.000024  0.000000  0.000488 -0.000000

   3.1   2    -0.9226   -9.4894 -0.019232  0.518766 -0.005308 -0.044883  0.038452  0.349245 -0.043579 -0.097488  0.000300  0.024654
                                 0.000000  0.010528  0.000000 -0.010284  0.000000  0.008136  0.000000 -0.008940  0.000000 -0.013724
                                 0.742158 -0.006134 -0.177904 -0.068862 -0.281258  0.027118  0.150474  0.026921  0.013846 -0.000000
                                 0.009769  0.000000 -0.027644 -0.000000 -0.004181  0.000000  0.002192  0.000000

   4.1   2    -0.3431   -7.0890  0.001782 -0.605341  0.005557 -0.047852 -0.065172  0.003715 -0.001798  0.022529 -0.001908 -0.008913
                                 0.000000 -0.006542 -0.000000  0.000315 -0.000000 -0.005462  0.000000  0.002860 -0.000000  0.003154
                                 0.531110 -0.001839  0.179910  0.131485  0.573760 -0.035785 -0.066394  0.007406 -0.008255 -0.000000
                                -0.004223  0.000000  0.009223  0.000000  0.001069  0.000000 -0.001204 -0.000000

   5.1   2    -0.1934   -6.2617 -0.002242 -0.377224  0.007309 -0.188394 -0.146839  0.705624 -0.052450 -0.078684  0.024270  0.019270
                                 0.000000  0.008351 -0.000000 -0.011383 -0.000000  0.005454  0.000000 -0.007281 -0.000000 -0.001220
                                 0.001379  0.001899 -0.079971 -0.047823 -0.513214  0.029928  0.039942 -0.025796  0.010457  0.000000
                                 0.010875 -0.000000 -0.006948  0.000000 -0.002640  0.000000 -0.001458 -0.000000

   6.1   0     0.2093   -1.5609  0.033141  0.122031  0.003940  3.623170  7.553154  0.010927  0.283791  2.033566  2.652124  0.006547
                                -0.000000  0.139283  0.000000  0.525329  0.000000  0.005555  0.000000  0.029993  0.000000  0.004836
                                -0.065740  0.007881 -2.304853 -9.147565 -0.079185  0.076836  1.303452  1.679229  0.003094  0.000000
                                -0.083181 -0.000000 -0.207290 -0.000000  0.006043 -0.000000  0.017004  0.000000

   7.1   0     0.2454   -1.7058 -0.025025  0.058927  0.020507 -1.383876 -3.256901 -0.155550 -0.024322 -1.041275  1.037771  0.007596
                                 0.000000 -0.120036 -0.000000  0.083093 -0.000000 -0.005269  0.000000 -0.012543 -0.000000 -0.001911
                                -0.000895  0.005331  0.887009  2.891692  0.092707 -0.028886 -0.473697 -1.914196  0.001908 -0.000000
                                -0.013708  0.000000  0.177197  0.000000  0.000926  0.000000  0.004191 -0.000000

                                   1 2px     1 2px     1 2px     1 2px     1 3d1+    1 3d1+    1 3d1+    1 4f1+    1 4f3+    1 4f1+ 
                                   1 4f3+    2 2px     2 2px     2 2px     2 2px     2 3d1+    2 3d1+    2 3d1+    2 4f1+    2 4f3+ 
                                   2 4f1+    2 4f3+ 

   1.2   2    -0.1913   -6.9240  0.511254 -0.020288 -0.027368  0.017514  0.022309  0.031938  0.004947  0.007527 -0.000000  0.001265
                                -0.000000  0.653329 -0.008397  0.021486  0.059090 -0.013790 -0.027323 -0.006690  0.005905 -0.000000
                                 0.001221 -0.000000

   2.2   0     0.2334   -1.6626 -0.051647  0.040093 -0.134568  2.092492 -0.001974 -0.078596  0.244940 -0.011273  0.000000 -0.004028
                                 0.000000 -0.132784  0.023577  0.002710 -1.330578  0.004781 -0.038493  0.058574  0.000959 -0.000000
                                 0.010205  0.000000

   3.2   0     0.3125   -1.8348 -0.147707 -0.173458 -2.026359 -1.534686  0.003862 -0.288599 -0.972934 -0.005824  0.000000 -0.137592
                                -0.000000 -0.091800  0.057132  1.191494  3.084076  0.008936 -0.077205 -0.832816 -0.008108  0.000000
                                 0.111650  0.000000

                                   1 2py     1 2py     1 2py     1 2py     1 3d1-    1 3d1-    1 3d1-    1 4f1-    1 4f3-    1 4f1- 
                                   1 4f3-    2 2py     2 2py     2 2py     2 2py     2 3d1-    2 3d1-    2 3d1-    2 4f1-    2 4f3- 
                                   2 4f1-    2 4f3- 

   1.3   2    -0.1913   -6.9240  0.511254 -0.020288 -0.027368  0.017514  0.022309  0.031938  0.004947  0.007527  0.000000  0.001265
                                 0.000000  0.653329 -0.008397  0.021486  0.059090 -0.013790 -0.027323 -0.006690  0.005905  0.000000
                                 0.001221  0.000000

   2.3   0     0.2334   -1.6626 -0.051647  0.040093 -0.134568  2.092492 -0.001974 -0.078596  0.244940 -0.011273 -0.000000 -0.004028
                                -0.000000 -0.132784  0.023577  0.002710 -1.330578  0.004781 -0.038493  0.058574  0.000959  0.000000
                                 0.010205 -0.000000

   3.3   0     0.3125   -1.8348 -0.147707 -0.173458 -2.026359 -1.534686  0.003862 -0.288599 -0.972934 -0.005824 -0.000000 -0.137592
                                 0.000000 -0.091800  0.057132  1.191494  3.084076  0.008936 -0.077205 -0.832816 -0.008108 -0.000000
                                 0.111650 -0.000000

                                   1 3d2-    1 3d2-    1 3d2-    1 4f2-    1 4f2-    2 3d2-    2 3d2-    2 3d2-    2 4f2-    2 4f2- 


   1.4   0     0.5133   -2.2028  0.037888 -0.119649  1.205715 -0.008362  0.074642  0.004461  0.022920 -0.223433 -0.010287  0.036034

   2.4   0     0.7737   -2.1550  0.017104 -0.135952 -0.982433  0.030630 -0.273970  0.034378 -0.085157  1.690711  0.021393 -0.169147

 HOMO      1.2    -0.191297 =      -5.2054eV
 LUMO      6.1     0.209339 =       5.6964eV
 LUMO-HOMO         0.400636 =      10.9019eV


 **********************************************************************************************************************************
 DATASETS  * FILE   NREC   LENGTH (MB)   RECORD NAMES
              1      19       23.45       500      610      700      900      950      970     1000      129      960     1100   
                                          VAR    BASINP    GEOM    SYMINP    ZMAT    AOBASIS   BASIS     P2S    ABASIS      S 
                                         1400     1410     1200     1210     1080     1600     1650     1300     1700   
                                           T        V       H0       H01     AOSYM     SMH    MOLCAS    ERIS     OPER   

              2       5        0.49       700     1000      520     2200     2100   
                                         GEOM     BASIS   MCVARS     UHF      RHF  

 PROGRAMS   *        TOTAL       RHF       UHF       INT
 CPU TIMES  *         0.89      0.02      0.21      0.57
 REAL TIME  *         1.91 SEC
 DISK USED  *        55.49 MB      
 **********************************************************************************************************************************


1PROGRAM * CISD (Restricted open-shell CI(SD))     Authors: C. Hampel, H.-J. Werner, 1991, M. Deegan, P.J. Knowles, 1992


 Convergence thresholds:  THRVAR = 1.00D-08  THRDEN = 1.00D-16

 Number of core orbitals:           2 (   2   0   0   0 )
 Number of closed-shell orbitals:   5 (   3   1   1   0 )
 Number of external orbitals:      85 (  33  21  21  10 )

 Number of N-1 electron functions:              10
 Number of N-2 electron functions:              45
 Number of singly external CSFs:               282
 Number of doubly external CSFs:             68754
 Total number of CSFs:                       69036

 Molecular orbitals read from record     2100.2  Type=RHF/CANONICAL (state 1.1)

 Integral transformation finished. Total CPU:   0.03 sec, npass=  1  Memory used:   0.10 MW

 Starting RMP2 calculation

 Wavefunction is spin-projected

 ITER.      SQ.NORM     CORR.ENERGY   TOTAL ENERGY   ENERGY CHANGE        DEN1      VAR(S)    VAR(P)  DIIS     TIME
   1      1.12850283    -0.34973254   -92.69091650    -0.34973254    -0.00185277  0.35D-16  0.93D-03  1  1     0.06
   2      1.13076172    -0.35175460   -92.69293856    -0.00202206    -0.00000307  0.98D-18  0.19D-05  2  2     0.06
   3      1.13083658    -0.35179358   -92.69297754    -0.00003898    -0.00000001  0.25D-19  0.46D-08  3  3     0.06
   4      1.13083769    -0.35179377   -92.69297773    -0.00000019    -0.00000000  0.60D-21  0.18D-10  4  4     0.07
   5      1.13083769    -0.35179377   -92.69297773     0.00000000    -0.00000000  0.11D-22  0.38D-13  5  5     0.07
   6      1.13083769    -0.35179377   -92.69297773     0.00000000    -0.00000000  0.27D-24  0.97D-16  6  6     0.07
   7      1.13083769    -0.35179377   -92.69297773    -0.00000000    -0.00000000  0.10D-25  0.72D-18  6  1     0.07
   8      1.13083769    -0.35179377   -92.69297773    -0.00000000    -0.00000000  0.24D-27  0.16D-20  6  2     0.08
   9      1.13083769    -0.35179377   -92.69297773     0.00000000    -0.00000000  0.67D-29  0.53D-23  6  3     0.08
  10      1.13083769    -0.35179377   -92.69297773     0.00000000    -0.00000000  0.19D-30  0.28D-25  6  4     0.08
  11      1.13083769    -0.35179377   -92.69297773     0.00000000    -0.00000000  0.53D-32  0.18D-27  6  5     0.08

 Norm of t1 vector:      0.00000003      S-energy:    -0.00000000      T1 diagnostic:  0.00000001
 Norm of t2 vector:      0.36171493      P-energy:    -0.35179377
                                         Alpha-Beta:  -0.26220043
                                         Alpha-Alpha: -0.04479667
                                         Beta-Beta:   -0.04479667

 Spin contamination <S**2-Sz**2-Sz>     0.00000000
  Reference energy                    -92.341183956812
  RHF-RMP2 correlation energy          -0.351793773204
 !RHF-RMP2 energy                     -92.692977730016
 (NB above energy spin projected)

 Starting RCISD calculation

 ITER.      SQ.NORM     CORR.ENERGY   TOTAL ENERGY   ENERGY CHANGE        DEN1      VAR(S)    VAR(P)  DIIS     TIME
   1      1.10013676    -0.31251516   -92.65369912    -0.31251516    -0.01338782  0.23D-02  0.35D-02  1  1     0.13
   2      1.10784517    -0.32313491   -92.66431886    -0.01061975    -0.00082450  0.22D-04  0.32D-03  2  2     0.18
   3      1.11003343    -0.32418425   -92.66536820    -0.00104934    -0.00006198  0.20D-04  0.20D-04  3  3     0.23
   4      1.11074609    -0.32434063   -92.66552458    -0.00015638    -0.00000870  0.18D-05  0.33D-05  4  4     0.27
   5      1.11098364    -0.32435804   -92.66554200    -0.00001742    -0.00000067  0.10D-06  0.26D-06  5  5     0.32
   6      1.11101528    -0.32436069   -92.66554464    -0.00000264    -0.00000006  0.17D-07  0.20D-07  6  6     0.36
   7      1.11101550    -0.32436087   -92.66554483    -0.00000019    -0.00000001  0.17D-08  0.21D-08  6  1     0.41
   8      1.11101636    -0.32436088   -92.66554484    -0.00000001    -0.00000000  0.11D-09  0.18D-09  6  2     0.45
   9      1.11101600    -0.32436088   -92.66554484    -0.00000000    -0.00000000  0.90D-11  0.16D-10  6  3     0.49
  10      1.11101612    -0.32436088   -92.66554484    -0.00000000    -0.00000000  0.96D-12  0.14D-11  6  4     0.53
  11      1.11101615    -0.32436088   -92.66554484    -0.00000000    -0.00000000  0.12D-12  0.15D-12  6  5     0.58
  12      1.11101617    -0.32436088   -92.66554484    -0.00000000    -0.00000000  0.12D-13  0.23D-13  6  6     0.63
  13      1.11101619    -0.32436088   -92.66554484    -0.00000000    -0.00000000  0.11D-14  0.36D-14  6  1     0.68
  14      1.11101620    -0.32436088   -92.66554484    -0.00000000    -0.00000000  0.42D-15  0.46D-15  6  2     0.73
  15      1.11101620    -0.32436088   -92.66554484     0.00000000    -0.00000000  0.29D-16  0.72D-16  6  3     0.77

 Norm of t1 vector:      0.04788845      S-energy:     0.00000000      T1 diagnostic:  0.01070818
 Norm of t2 vector:      0.32973155      P-energy:    -0.32436088
                                         Alpha-Beta:  -0.25402371
                                         Alpha-Alpha: -0.03516859
                                         Beta-Beta:   -0.03516859

 Doubles amplitudes (print threshold =  0.500E-01):

         I         J         SYM. A    SYM. B    A         B      T(IJ, AB) [Alpha-Beta]

         4         4         2         2         3         3     -0.05371802
         5         5         3         3         3         3     -0.05371802

 Spin contamination <S**2-Sz**2-Sz>     0.00000000
 

 ?Inconsistent energies:

 ecorr    -0.3243608830  -0.3243608832    0.13D-09
 estrong  -0.3243608836  -0.3243608836   -0.56D-16
 eclose    0.0000000000   0.0000000000    0.00D+00
 eweak     0.0000000000   0.0000000000    0.00D+00
 edist     0.0000000000   0.0000000000    0.00D+00

 RESULTS
 =======

  Reference energy                    -92.341183956812
  RCISD singles energy                  0.000000000406
  RCISD pair energy                    -0.324360883572
  RCISD correlation energy             -0.324360883165
 
 !RHF-RCISD energy                    -92.665544839978

 Program statistics:

 Available memory in ccsd:              5879999650
 Min. memory needed in ccsd:                251931
 Max. memory used in ccsd:                  328537
 Max. memory used in cckext:                317785 (15 integral passes)
 Max. memory used in cckint:                104929 ( 1 integral passes)



 **********************************************************************************************************************************
 DATASETS  * FILE   NREC   LENGTH (MB)   RECORD NAMES
              1      19       23.45       500      610      700      900      950      970     1000      129      960     1100   
                                          VAR    BASINP    GEOM    SYMINP    ZMAT    AOBASIS   BASIS     P2S    ABASIS      S 
                                         1400     1410     1200     1210     1080     1600     1650     1300     1700   
                                           T        V       H0       H01     AOSYM     SMH    MOLCAS    ERIS     OPER   

              2       5        0.49       700     1000      520     2200     2100   
                                         GEOM     BASIS   MCVARS     UHF      RHF  

 PROGRAMS   *        TOTAL     RCISD       RHF       UHF       INT
 CPU TIMES  *         1.68      0.79      0.02      0.21      0.57
 REAL TIME  *         3.01 SEC
 DISK USED  *        55.49 MB      
 **********************************************************************************************************************************


1PROGRAM * CCSD (Restricted open-shell coupled cluster)     Authors: C. Hampel, H.-J. Werner, 1991, M. Deegan, P.J. Knowles, 1992


 Convergence thresholds:  THRVAR = 1.00D-08  THRDEN = 1.00D-16

 CCSD(T)     terms to be evaluated (factor= 1.000)


 Number of core orbitals:           2 (   2   0   0   0 )
 Number of closed-shell orbitals:   5 (   3   1   1   0 )
 Number of external orbitals:      85 (  33  21  21  10 )

 Memory could be reduced to 2.47 Mwords without degradation in triples

 Number of N-1 electron functions:              10
 Number of N-2 electron functions:              45
 Number of singly external CSFs:               282
 Number of doubly external CSFs:             68754
 Total number of CSFs:                       69036

 Molecular orbitals read from record     2100.2  Type=RHF/CANONICAL (state 1.1)

 Integral transformation finished. Total CPU:   0.04 sec, npass=  1  Memory used:   0.27 MW

 Starting RMP2 calculation

 Wavefunction is spin-projected

 ITER.      SQ.NORM     CORR.ENERGY   TOTAL ENERGY   ENERGY CHANGE        DEN1      VAR(S)    VAR(P)  DIIS     TIME
   1      1.12850283    -0.34973254   -92.69091650    -0.34973254    -0.00185277  0.35D-16  0.93D-03  1  1     0.05
   2      1.13076172    -0.35175460   -92.69293856    -0.00202206    -0.00000307  0.98D-18  0.19D-05  2  2     0.06
   3      1.13083658    -0.35179358   -92.69297754    -0.00003898    -0.00000001  0.25D-19  0.46D-08  3  3     0.06
   4      1.13083769    -0.35179377   -92.69297773    -0.00000019    -0.00000000  0.60D-21  0.18D-10  4  4     0.06
   5      1.13083769    -0.35179377   -92.69297773     0.00000000    -0.00000000  0.11D-22  0.38D-13  5  5     0.07
   6      1.13083769    -0.35179377   -92.69297773     0.00000000    -0.00000000  0.27D-24  0.97D-16  6  6     0.07
   7      1.13083769    -0.35179377   -92.69297773    -0.00000000    -0.00000000  0.10D-25  0.72D-18  6  1     0.07
   8      1.13083769    -0.35179377   -92.69297773    -0.00000000    -0.00000000  0.24D-27  0.16D-20  6  2     0.07
   9      1.13083769    -0.35179377   -92.69297773     0.00000000    -0.00000000  0.67D-29  0.53D-23  6  3     0.08
  10      1.13083769    -0.35179377   -92.69297773     0.00000000    -0.00000000  0.19D-30  0.28D-25  6  4     0.08
  11      1.13083769    -0.35179377   -92.69297773     0.00000000    -0.00000000  0.53D-32  0.18D-27  6  5     0.08

 Norm of t1 vector:      0.00000003      S-energy:    -0.00000000      T1 diagnostic:  0.00000001
 Norm of t2 vector:      0.36171493      P-energy:    -0.35179377
                                         Alpha-Beta:  -0.26220043
                                         Alpha-Alpha: -0.04479667
                                         Beta-Beta:   -0.04479667

 Spin contamination <S**2-Sz**2-Sz>     0.00000000
  Reference energy                    -92.341183956812
  RHF-RMP2 correlation energy          -0.351793773204
 !RHF-RMP2 energy                     -92.692977730016
 (NB above energy spin projected)

 Starting RCCSD calculation

 ITER.      SQ.NORM     CORR.ENERGY   TOTAL ENERGY   ENERGY CHANGE        DEN1      VAR(S)    VAR(P)  DIIS     TIME
   1      1.12105488    -0.33823932   -92.67942327    -0.33823932    -0.01141086  0.23D-02  0.26D-02  1  1     0.15
   2      1.13261664    -0.34847893   -92.68966288    -0.01023961    -0.00115070  0.12D-03  0.46D-03  2  2     0.21
   3      1.13831811    -0.35070447   -92.69188842    -0.00222554    -0.00013057  0.50D-04  0.43D-04  3  3     0.28
   4      1.14118766    -0.35149729   -92.69268124    -0.00079282    -0.00001541  0.85D-05  0.48D-05  4  4     0.33
   5      1.14204483    -0.35161005   -92.69279401    -0.00011276    -0.00000226  0.17D-05  0.55D-06  5  5     0.39
   6      1.14233565    -0.35164631   -92.69283026    -0.00003626    -0.00000035  0.27D-06  0.90D-07  6  6     0.45
   7      1.14241870    -0.35164943   -92.69283339    -0.00000312    -0.00000005  0.35D-07  0.12D-07  6  2     0.51
   8      1.14245499    -0.35165293   -92.69283688    -0.00000350    -0.00000001  0.28D-08  0.17D-08  6  1     0.57
   9      1.14246372    -0.35165449   -92.69283845    -0.00000157    -0.00000000  0.28D-09  0.21D-09  6  3     0.64
  10      1.14246542    -0.35165393   -92.69283788     0.00000057    -0.00000000  0.25D-10  0.24D-10  6  4     0.69
  11      1.14246542    -0.35165385   -92.69283781     0.00000007    -0.00000000  0.62D-11  0.24D-11  6  5     0.75
  12      1.14246521    -0.35165376   -92.69283771     0.00000010    -0.00000000  0.12D-11  0.52D-12  6  6     0.81
  13      1.14246500    -0.35165373   -92.69283769     0.00000002    -0.00000000  0.21D-12  0.67D-13  6  1     0.87
  14      1.14246494    -0.35165372   -92.69283768     0.00000001    -0.00000000  0.22D-13  0.74D-14  6  2     0.93
  15      1.14246492    -0.35165372   -92.69283767     0.00000000    -0.00000000  0.61D-14  0.18D-14  6  3     0.99
  16      1.14246492    -0.35165372   -92.69283767     0.00000000    -0.00000000  0.56D-15  0.26D-15  6  4     1.04
  17      1.14246492    -0.35165372   -92.69283767     0.00000000    -0.00000000  0.65D-16  0.31D-16  6  5     1.10
  18      1.14246492    -0.35165372   -92.69283767    -0.00000000    -0.00000000  0.60D-17  0.45D-17  6  6     1.16
  19      1.14246492    -0.35165372   -92.69283767    -0.00000000    -0.00000000  0.12D-17  0.63D-18  6  1     1.22
  20      1.14246492    -0.35165372   -92.69283767    -0.00000000    -0.00000000  0.25D-18  0.10D-18  6  2     1.27
  21      1.14246492    -0.35165372   -92.69283767     0.00000000    -0.00000000  0.51D-19  0.20D-19  6  3     1.33
  22      1.14246492    -0.35165372   -92.69283767     0.00000000    -0.00000000  0.64D-20  0.25D-20  6  4     1.39
  23      1.14246492    -0.35165372   -92.69283767    -0.00000000    -0.00000000  0.20D-20  0.65D-21  6  5     1.45
  24      1.14246492    -0.35165372   -92.69283767    -0.00000000    -0.00000000  0.44D-22  0.30D-22  6  1     1.51
  25      1.14246492    -0.35165372   -92.69283767    -0.00000000    -0.00000000  0.55D-23  0.60D-23  6  6     1.57
  26      1.14246492    -0.35165372   -92.69283767    -0.00000000    -0.00000000  0.12D-23  0.11D-23  6  2     1.62
  27      1.14246492    -0.35165372   -92.69283767    -0.00000000    -0.00000000  0.40D-24  0.29D-24  6  3     1.68
  28      1.14246492    -0.35165372   -92.69283767    -0.00000000    -0.00000000  0.14D-24  0.11D-24  6  4     1.75
  29      1.14246492    -0.35165372   -92.69283767     0.00000000    -0.00000000  0.95D-25  0.64D-25  6  5     1.80

 Norm of t1 vector:      0.07967229      S-energy:     0.00000000      T1 diagnostic:  0.01781527
                                                                       D1 diagnostic:  0.03222656
 Norm of t2 vector:      0.36894071      P-energy:    -0.35165372
                                         Alpha-Beta:  -0.27652804
                                         Alpha-Alpha: -0.03756284
                                         Beta-Beta:   -0.03756284

 Doubles amplitudes (print threshold =  0.500E-01):

         I         J         SYM. A    SYM. B    A         B      T(IJ, AB) [Alpha-Beta]

         4         4         2         2         3         3     -0.06492224
         5         5         3         3         3         3     -0.06492224

 Spin contamination <S**2-Sz**2-Sz>     0.00000000

 Memory could be reduced to 2.52 Mwords without degradation in triples
 

 RESULTS
 =======

  Reference energy                    -92.341183956812
  RCCSD singles energy                  0.000000000999
  RCCSD pair energy                    -0.351653717138
  RCCSD correlation energy             -0.351653716139
  Triples (T) contribution             -0.020260323678
  Total correlation energy             -0.371914039817
 
  RHF-RCCSD energy                    -92.692837672951
  RHF-RCCSD[T] energy                 -92.714001384950
  RHF-RCCSD-T energy                  -92.712744349254
 !RHF-RCCSD(T) energy                 -92.713097996629

 Program statistics:

 Available memory in ccsd:              5879999650
 Min. memory needed in ccsd:                251931
 Max. memory used in ccsd:                  328537
 Max. memory used in cckext:                317785 (29 integral passes)
 Max. memory used in cckint:                266877 ( 1 integral passes)



 **********************************************************************************************************************************
 DATASETS  * FILE   NREC   LENGTH (MB)   RECORD NAMES
              1      19       23.45       500      610      700      900      950      970     1000      129      960     1100   
                                          VAR    BASINP    GEOM    SYMINP    ZMAT    AOBASIS   BASIS     P2S    ABASIS      S 
                                         1400     1410     1200     1210     1080     1600     1650     1300     1700   
                                           T        V       H0       H01     AOSYM     SMH    MOLCAS    ERIS     OPER   

              2       5        0.49       700     1000      520     2200     2100   
                                         GEOM     BASIS   MCVARS     UHF      RHF  

 PROGRAMS   *        TOTAL  RCCSD(T)     RCISD       RHF       UHF       INT
 CPU TIMES  *         4.05      2.34      0.79      0.02      0.21      0.57
 REAL TIME  *         6.03 SEC
 DISK USED  *        56.17 MB      
 **********************************************************************************************************************************


1PROGRAM * CCSD (Unrestricted open-shell coupled cluster)     Authors: C. Hampel, H.-J. Werner, 1991, M. Deegan, P.J. Knowles, 1992


 Convergence thresholds:  THRVAR = 1.00D-08  THRDEN = 1.00D-16

 CCSD(T)     terms to be evaluated (factor= 1.000)


 Number of core orbitals:           2 (   2   0   0   0 )
 Number of closed-shell orbitals:   5 (   3   1   1   0 )
 Number of external orbitals:      85 (  33  21  21  10 )

 Memory could be reduced to 2.47 Mwords without degradation in triples

 Number of N-1 electron functions:              10
 Number of N-2 electron functions:              45
 Number of singly external CSFs:               282
 Number of doubly external CSFs:             68754
 Total number of CSFs:                       69036

 Molecular orbitals read from record     2100.2  Type=RHF/CANONICAL (state 1.1)

 Integral transformation finished. Total CPU:   0.04 sec, npass=  1  Memory used:   0.27 MW

 Starting RMP2 calculation

 ITER.      SQ.NORM     CORR.ENERGY   TOTAL ENERGY   ENERGY CHANGE        DEN1      VAR(S)    VAR(P)  DIIS     TIME
   1      1.12850283    -0.34973254   -92.69091650    -0.34973254    -0.00185277  0.35D-16  0.93D-03  1  1     0.07
   2      1.13076172    -0.35175460   -92.69293856    -0.00202206    -0.00000307  0.98D-18  0.19D-05  2  2     0.07
   3      1.13083658    -0.35179358   -92.69297754    -0.00003898    -0.00000001  0.25D-19  0.46D-08  3  3     0.08
   4      1.13083769    -0.35179377   -92.69297773    -0.00000019    -0.00000000  0.60D-21  0.18D-10  4  4     0.09
   5      1.13083769    -0.35179377   -92.69297773     0.00000000    -0.00000000  0.11D-22  0.38D-13  5  5     0.09
   6      1.13083769    -0.35179377   -92.69297773     0.00000000    -0.00000000  0.27D-24  0.97D-16  6  6     0.09
   7      1.13083769    -0.35179377   -92.69297773    -0.00000000    -0.00000000  0.10D-25  0.72D-18  6  1     0.09
   8      1.13083769    -0.35179377   -92.69297773    -0.00000000    -0.00000000  0.24D-27  0.16D-20  6  2     0.09
   9      1.13083769    -0.35179377   -92.69297773     0.00000000    -0.00000000  0.67D-29  0.53D-23  6  3     0.09
  10      1.13083769    -0.35179377   -92.69297773     0.00000000    -0.00000000  0.19D-30  0.28D-25  6  4     0.09
  11      1.13083769    -0.35179377   -92.69297773     0.00000000    -0.00000000  0.53D-32  0.18D-27  6  5     0.10

 Norm of t1 vector:      0.00000003      S-energy:    -0.00000000      T1 diagnostic:  0.00000001
 Norm of t2 vector:      0.36171493      P-energy:    -0.35179377
                                         Alpha-Beta:  -0.26220043
                                         Alpha-Alpha: -0.04479667
                                         Beta-Beta:   -0.04479667

 Spin contamination <S**2-Sz**2-Sz>     0.00000000
  Reference energy                    -92.341183956812
  RHF-RMP2 correlation energy          -0.351793773204
 !RHF-RMP2 energy                     -92.692977730016

 Starting UCCSD calculation

 ITER.      SQ.NORM     CORR.ENERGY   TOTAL ENERGY   ENERGY CHANGE        DEN1      VAR(S)    VAR(P)  DIIS     TIME
   1      1.12105488    -0.33823932   -92.67942327    -0.33823932    -0.01141086  0.23D-02  0.26D-02  1  1     0.17
   2      1.13261967    -0.34848342   -92.68966738    -0.01024410    -0.00115005  0.12D-03  0.46D-03  2  2     0.25
   3      1.13830881    -0.35069295   -92.69187690    -0.00220953    -0.00013108  0.50D-04  0.43D-04  3  3     0.30
   4      1.14117824    -0.35150071   -92.69268466    -0.00080776    -0.00001596  0.88D-05  0.50D-05  4  4     0.38
   5      1.14202182    -0.35160636   -92.69279031    -0.00010565    -0.00000246  0.17D-05  0.65D-06  5  5     0.44
   6      1.14233119    -0.35164613   -92.69283009    -0.00003977    -0.00000037  0.29D-06  0.96D-07  6  6     0.51
   7      1.14241418    -0.35164910   -92.69283305    -0.00000297    -0.00000005  0.44D-07  0.14D-07  6  2     0.57
   8      1.14245477    -0.35165316   -92.69283712    -0.00000406    -0.00000001  0.30D-08  0.19D-08  6  1     0.62
   9      1.14246331    -0.35165450   -92.69283845    -0.00000134    -0.00000000  0.33D-09  0.24D-09  6  3     0.69
  10      1.14246552    -0.35165396   -92.69283792     0.00000054    -0.00000000  0.23D-10  0.25D-10  6  4     0.75
  11      1.14246544    -0.35165388   -92.69283783     0.00000008    -0.00000000  0.62D-11  0.26D-11  6  5     0.81
  12      1.14246522    -0.35165375   -92.69283771     0.00000012    -0.00000000  0.12D-11  0.54D-12  6  6     0.87
  13      1.14246499    -0.35165373   -92.69283769     0.00000002    -0.00000000  0.19D-12  0.59D-13  6  1     0.93
  14      1.14246493    -0.35165372   -92.69283768     0.00000001    -0.00000000  0.24D-13  0.80D-14  6  2     0.98
  15      1.14246492    -0.35165372   -92.69283767     0.00000000    -0.00000000  0.47D-14  0.11D-14  6  1     1.04
  16      1.14246492    -0.35165371   -92.69283767     0.00000000    -0.00000000  0.51D-15  0.15D-15  6  3     1.11
  17      1.14246492    -0.35165372   -92.69283767    -0.00000000    -0.00000000  0.48D-16  0.18D-16  6  4     1.18
  18      1.14246492    -0.35165372   -92.69283767    -0.00000000    -0.00000000  0.31D-17  0.18D-17  6  5     1.25
  19      1.14246492    -0.35165372   -92.69283767    -0.00000000    -0.00000000  0.30D-18  0.20D-18  6  6     1.31
  20      1.14246492    -0.35165372   -92.69283767     0.00000000    -0.00000000  0.37D-19  0.26D-19  6  2     1.37
  21      1.14246492    -0.35165372   -92.69283767    -0.00000000    -0.00000000  0.43D-20  0.31D-20  6  4     1.43
  22      1.14246492    -0.35165372   -92.69283767    -0.00000000    -0.00000000  0.32D-21  0.17D-21  6  1     1.49
  23      1.14246492    -0.35165372   -92.69283767    -0.00000000    -0.00000000  0.47D-22  0.28D-22  6  3     1.55
  24      1.14246492    -0.35165372   -92.69283767    -0.00000000    -0.00000000  0.45D-23  0.37D-23  6  2     1.61
  25      1.14246492    -0.35165372   -92.69283767    -0.00000000    -0.00000000  0.14D-23  0.85D-24  6  5     1.67
  26      1.14246492    -0.35165372   -92.69283767    -0.00000000    -0.00000000  0.45D-24  0.27D-24  6  6     1.73
  27      1.14246492    -0.35165372   -92.69283767     0.00000000    -0.00000000  0.15D-24  0.73D-25  6  4     1.79

 Norm of t1 vector:      0.07967229      S-energy:     0.00000000      T1 diagnostic:  0.01781527
                                                                       D1 diagnostic:  0.03222656
 Norm of t2 vector:      0.36894071      P-energy:    -0.35165372
                                         Alpha-Beta:  -0.27652804
                                         Alpha-Alpha: -0.03756284
                                         Beta-Beta:   -0.03756284

 Doubles amplitudes (print threshold =  0.500E-01):

         I         J         SYM. A    SYM. B    A         B      T(IJ, AB) [Alpha-Beta]

         4         4         2         2         3         3     -0.06492224
         5         5         3         3         3         3     -0.06492224

 Spin contamination <S**2-Sz**2-Sz>     0.00000000

 Memory could be reduced to 2.52 Mwords without degradation in triples
 

 RESULTS
 =======

  Reference energy                    -92.341183956812
  UCCSD singles energy                  0.000000000999
  UCCSD pair energy                    -0.351653717138
  UCCSD correlation energy             -0.351653716139
  Triples (T) contribution             -0.020260323678
  Total correlation energy             -0.371914039817
 
  RHF-UCCSD energy                    -92.692837672951
  RHF-UCCSD[T] energy                 -92.714001384950
  RHF-UCCSD-T energy                  -92.712744349254
 !RHF-UCCSD(T) energy                 -92.713097996629
  MRCC:                               -92.713097996516

 Program statistics:

 Available memory in ccsd:              5879999650
 Min. memory needed in ccsd:                251931
 Max. memory used in ccsd:                  328537
 Max. memory used in cckext:                317785 (27 integral passes)
 Max. memory used in cckint:                266877 ( 1 integral passes)



 **********************************************************************************************************************************
 DATASETS  * FILE   NREC   LENGTH (MB)   RECORD NAMES
              1      19       23.45       500      610      700      900      950      970     1000      129      960     1100   
                                          VAR    BASINP    GEOM    SYMINP    ZMAT    AOBASIS   BASIS     P2S    ABASIS      S 
                                         1400     1410     1200     1210     1080     1600     1650     1300     1700   
                                           T        V       H0       H01     AOSYM     SMH    MOLCAS    ERIS     OPER   

              2       5        0.49       700     1000      520     2200     2100   
                                         GEOM     BASIS   MCVARS     UHF      RHF  

 PROGRAMS   *        TOTAL  UCCSD(T)  RCCSD(T)     RCISD       RHF       UHF       INT
 CPU TIMES  *         6.40      2.35      2.34      0.79      0.02      0.21      0.57
 REAL TIME  *         9.00 SEC
 DISK USED  *        56.17 MB      
 **********************************************************************************************************************************

1PROGRAM * MULTI (Direct Multiconfiguration SCF)       Authors: P.J. Knowles, H.-J. Werner (1984)     S.T. Elbert (1988)


 Number of closed-shell orbitals:   2 (   2   0   0   0 )
 Number of active  orbitals:        8 (   4   2   2   0 )
 Number of external orbitals:      82 (  32  20  20  10 )

 State symmetry 1

 Number of electrons:    10    Spin symmetry=Singlet   Space symmetry=1
 Number of states:        1
 Number of CSFs:        328   (792 determinants, 3136 intermediate states)

 Molecular orbitals read from record     2200.2  Type=UHF/NATURAL (state 1.1)

 EXTRA SYMMETRY OF MOS IN SYMMETRY 1:   1 1 1 1 1 1 1 1 1 2   1 1 1 2 1 1 2 1 2 1   1 2 1 2 1 1 1 2 2 1   1 1 2 2 1 1 1 1
 EXTRA SYMMETRY OF MOS IN SYMMETRY 2:   1 1 1 1 1 1 1 1 2 1   1 2 1 1 1 2 1 1 1 2   1 1
 EXTRA SYMMETRY OF MOS IN SYMMETRY 3:   1 1 1 1 1 1 1 1 2 1   1 2 1 1 1 2 1 1 1 2   1 1

 Wavefunction dump at record             2140.2

 Convergence thresholds  0.10E-01 (gradient)  0.10E-15 (energy)  0.10E-02 (step length)

 Number of orbital rotations:      280   (     8 Core/Active     64 Core/Virtual   0 Active/Active    208 Active/Virtual)
 Total number of variables:       1072


 ITER. MIC  NCI  NEG     ENERGY(VAR)     ENERGY(PROJ)   ENERGY CHANGE     GRAD(0)  GRAD(ORB)   GRAD(CI)     STEP       TIME

   1   80   22    0     -92.34148419     -92.46246812   -0.12098393    0.00242680 0.00044646 0.02554603  0.15D+01      0.10
   2   36   27    0     -92.45448727     -92.46075491   -0.00626763    0.07340422 0.00000094 0.00000586  0.31D+00      0.19
   3   55   24    0     -92.46077547     -92.46077630   -0.00000083    0.00077432 0.00000000 0.00000004  0.35D-02      0.31
   4  124   12    0     -92.46077630     -92.46077630   -0.00000000    0.00000026 0.00000000 0.00000000  0.13D-05      0.37
   5   66    5    0     -92.46077630     -92.46077630   -0.00000000    0.00000002 0.00000000 0.00000000  0.12D-06      0.43

 ** WVFN ****  CONVERGENCE REACHED, FINAL GRADIENT:  0.15D-07


 First order charge density matrix for state 1.1 saved on record  2140.2 (density set 1)

 Results for state 1.1
 =====================

 !MCSCF STATE 1.1 Energy              -92.460776303415
 Nuclear energy                        18.78606253
 Kinetic energy                        92.45420187
 One electron energy                 -166.21800203
 Two electron energy                   54.97116319
 Virial ratio                           2.00007111

 !MCSCF STATE 1.1 Dipole moment         0.00000000     0.00000000     0.33376546
 Dipole moment /Debye                   0.00000000     0.00000000     0.84829162


 NATURAL ORBITALS
 ================

   Orb     Occ        Energy       Coefficients

                                   1 1s      1 1s      1 1s      1 1s      1 1s      1 2pz     1 2pz     1 2pz     1 2pz     1 3d0  
                                   1 3d2+    1 3d0     1 3d2+    1 3d0     1 3d2+    1 4f0     1 4f2+    1 4f0     1 4f2+    2 1s   
                                   2 1s      2 1s      2 1s      2 1s      2 2pz     2 2pz     2 2pz     2 2pz     2 3d0     2 3d2+ 
                                   2 3d0     2 3d2+    2 3d0     2 3d2+    2 4f0     2 4f2+    2 4f0     2 4f2+ 

   1.1  2.00000   -15.227795    -0.003501 -0.008502  0.000649 -0.008685 -0.004109  0.008101 -0.001253 -0.003747  0.000602 -0.000211
                                 0.000000 -0.000326  0.000000 -0.000821  0.000000 -0.000380  0.000000  0.000136  0.000000  0.997851
                                -0.037425  0.002050  0.007571 -0.001441 -0.022490  0.002353 -0.003085 -0.001730  0.000615  0.000000
                                 0.000243  0.000000  0.000396  0.000000 -0.000174  0.000000  0.000174  0.000000

   2.1  2.00000   -10.916851     0.998829 -0.024879  0.002582 -0.000326 -0.004825  0.020997 -0.001563  0.000986  0.001489  0.001144
                                 0.000000  0.000646  0.000000  0.000528  0.000000  0.000400  0.000000 -0.000050  0.000000  0.002391
                                -0.008943  0.000433 -0.004140 -0.003217 -0.009364  0.001580  0.000703 -0.000709  0.000082  0.000000
                                -0.000838  0.000000  0.000253  0.000000 -0.000018  0.000000  0.000395  0.000000

   3.1  1.99668    -0.605217     0.020352  0.433538 -0.007971  0.078802  0.114437 -0.192864  0.001264 -0.016059 -0.017265  0.002528
                                 0.000000 -0.000457  0.000000 -0.000766  0.000000  0.000714  0.000000 -0.000930  0.000000  0.035773
                                 0.677837 -0.007220 -0.023317  0.012993  0.285290 -0.008211  0.066862  0.040497  0.000690  0.000000
                                -0.001306  0.000000 -0.012304  0.000000 -0.001080  0.000000  0.001881  0.000000

   4.1  1.99065    -0.302498    -0.021971 -0.660393  0.009876 -0.147296 -0.140196  0.359578 -0.030259 -0.024864  0.011355  0.004408
                                 0.000000  0.001827  0.000000 -0.005016  0.000000 -0.001145  0.000000 -0.001313  0.000000  0.014434
                                 0.528826 -0.001959  0.110238  0.092811  0.223359 -0.013241 -0.025598 -0.005909 -0.001518  0.000000
                                 0.001497  0.000000  0.002536  0.000000 -0.000693  0.000000 -0.001711  0.000000

   5.1  1.98256    -0.547438    -0.019701  0.379327  0.000758 -0.127627 -0.044373  0.665148 -0.064494 -0.125369  0.016804  0.030447
                                 0.000000  0.011227  0.000000 -0.014363  0.000000  0.010489  0.000000 -0.012181  0.000000 -0.015873
                                 0.311611  0.000198 -0.246939 -0.126253 -0.737677  0.055167  0.159395 -0.001353  0.018202  0.000000
                                 0.012768  0.000000 -0.027474  0.000000 -0.004540  0.000000  0.001394  0.000000

   6.1  0.01897     1.444533    -0.068313 -0.912193 -0.081262 -0.033507 -0.036040 -1.246477  0.034937  0.083524 -0.035686  0.014801
                                 0.000000 -0.036945  0.000000 -0.054141  0.000000  0.026301  0.000000 -0.012693  0.000000  0.084898
                                 0.920916  0.111980  0.116345  0.151007 -1.320040  0.129581  0.384383  0.013702 -0.013139  0.000000
                                -0.050637  0.000000 -0.039013  0.000000  0.015376  0.000000  0.020032  0.000000

   7.1  0.00000     0.208446    -0.033945 -0.117819 -0.003540 -3.660786 -7.632762 -0.012308 -0.284029 -2.050700 -2.608298 -0.006714
                                -0.000000 -0.142822 -0.000000 -0.519925 -0.000000 -0.005813  0.000000 -0.030429 -0.000000 -0.005415
                                 0.060255 -0.008064  2.320204  9.217366  0.086548 -0.077117 -1.314012 -1.752569 -0.002904 -0.000000
                                 0.082491  0.000000  0.217406  0.000000 -0.005957  0.000000 -0.017540 -0.000000

   8.1  0.00000     0.253735    -0.028975 -0.002515  0.016778 -1.318130 -2.868562 -0.212750 -0.011404 -0.926380  1.239147  0.012895
                                 0.000000 -0.096678 -0.000000  0.173618 -0.000000 -0.003385  0.000000 -0.002696 -0.000000 -0.000499
                                 0.042078  0.008322  0.751863  2.498232  0.029521 -0.020113 -0.431128 -1.994483  0.000101 -0.000000
                                -0.028251  0.000000  0.186438  0.000000  0.002176 -0.000000  0.004693  0.000000

                                   1 2px     1 2px     1 2px     1 2px     1 3d1+    1 3d1+    1 3d1+    1 4f1+    1 4f3+    1 4f1+ 
                                   1 4f3+    2 2px     2 2px     2 2px     2 2px     2 3d1+    2 3d1+    2 3d1+    2 4f1+    2 4f3+ 
                                   2 4f1+    2 4f3+ 

   1.2  1.94699    -0.174079     0.540301 -0.021432 -0.034518  0.016087  0.021171  0.027483  0.002050  0.006676  0.000000 -0.000040
                                 0.000000  0.671729 -0.013582  0.000049  0.047381 -0.013314 -0.023828 -0.004997  0.005329  0.000000
                                 0.000708  0.000000

   2.2  0.05858     0.617434     0.882696  0.043713 -0.044682  0.012754  0.005522  0.055446  0.027460  0.001805  0.000000  0.015738
                                 0.000000 -1.014731  0.026559  0.182252  0.009086 -0.003953  0.006169  0.015227  0.005173  0.000000
                                -0.005612  0.000000

   3.2  0.00000     0.241709     0.161406 -0.037338  0.228381 -2.133992 -0.001107  0.084557 -0.264069  0.011484 -0.000000  0.003687
                                -0.000000  0.024633 -0.027854 -0.046580  1.325074 -0.006533  0.039120 -0.054759 -0.000514  0.000000
                                -0.012753 -0.000000

   4.2  0.00000     0.311236    -0.090157 -0.177033 -2.010812 -1.654609  0.003063 -0.287384 -1.006484 -0.005338  0.000000 -0.139561
[...]
    108    106      0      0      0      1 ( 0, 0, 1) 1   0        2.193906773        2.193906773
    109     55      0      0      0     -1 ( 0, 0, 0) 0   0        2.418228355        2.418228355
    110     56      0      0      0      1 ( 0, 0, 0) 0   0        2.418228355        2.418228355
    111    175      0      0      0     -1 ( 0, 0, 3) 3   0        2.418228355        2.418228355
    112    176      0      0      0      1 ( 0, 0, 3) 3   0        2.418228355        2.418228355
    113    147      0      0      0     -1 ( 0, 0, 2) 2   0        2.504668157        2.504668157
    114    148      0      0      0      1 ( 0, 0, 2) 2   0        2.504668157        2.504668157
    115    107      0      0      0     -1 ( 0, 0, 1) 1   0        2.535292752        2.535292752
    116    108      0      0      0      1 ( 0, 0, 1) 1   0        2.535292752        2.535292752
    117     57      0      0      0     -1 ( 0, 0, 0) 0   0        2.561355115        2.561355115
    118     58      0      0      0      1 ( 0, 0, 0) 0   0        2.561355115        2.561355115
    119     59      0      0      0     -1 ( 0, 0, 0) 0   0        2.976001443        2.976001443
    120     60      0      0      0      1 ( 0, 0, 0) 0   0        2.976001443        2.976001443
    121    149      0      0      0     -1 ( 0, 0, 2) 2   0        3.316709887        3.316709887
    122    150      0      0      0      1 ( 0, 0, 2) 2   0        3.316709887        3.316709887
    123    109      0      0      0     -1 ( 0, 0, 1) 1   0        3.343572554        3.343572554
    124    110      0      0      0      1 ( 0, 0, 1) 1   0        3.343572554        3.343572554
    125     61      0      0      0     -1 ( 0, 0, 0) 0   0        3.811020337        3.811020337
    126     62      0      0      0      1 ( 0, 0, 0) 0   0        3.811020337        3.811020337
    127    111      0      0      0     -1 ( 0, 0, 1) 1   0        3.910676073        3.910676073
    128    112      0      0      0      1 ( 0, 0, 1) 1   0        3.910676073        3.910676073
    129    151      0      0      0     -1 ( 0, 0, 2) 2   0        3.910676073        3.910676073
    130    152      0      0      0      1 ( 0, 0, 2) 2   0        3.910676073        3.910676073
    131     63      0      0      0     -1 ( 0, 0, 0) 0   0        3.959203215        3.959203215
    132     64      0      0      0      1 ( 0, 0, 0) 0   0        3.959203215        3.959203215
    133    177      0      0      0     -1 ( 0, 0, 3) 3   0        3.959203215        3.959203215
    134    178      0      0      0      1 ( 0, 0, 3) 3   0        3.959203215        3.959203215
    135    153      0      0      0     -1 ( 0, 0, 2) 2   0        4.001231101        4.001231101
    136    154      0      0      0      1 ( 0, 0, 2) 2   0        4.001231101        4.001231101
    137    113      0      0      0     -1 ( 0, 0, 1) 1   0        4.029965384        4.029965384
    138    114      0      0      0      1 ( 0, 0, 1) 1   0        4.029965384        4.029965384
    139     65      0      0      0     -1 ( 0, 0, 0) 0   0        4.073878217        4.073878217
    140     66      0      0      0      1 ( 0, 0, 0) 0   0        4.073878217        4.073878217
    141    179      0      0      0     -1 ( 0, 0, 3) 3   0        4.073878217        4.073878217
    142    180      0      0      0      1 ( 0, 0, 3) 3   0        4.073878217        4.073878217
    143     67      0      0      0     -1 ( 0, 0, 0) 0   0        4.117315084        4.117315084
    144     68      0      0      0      1 ( 0, 0, 0) 0   0        4.117315084        4.117315084
    145    155      0      0      0     -1 ( 0, 0, 2) 2   0        4.164682905        4.164682905
    146    156      0      0      0      1 ( 0, 0, 2) 2   0        4.164682905        4.164682905
    147    115      0      0      0     -1 ( 0, 0, 1) 1   0        4.199185883        4.199185883
    148    116      0      0      0      1 ( 0, 0, 1) 1   0        4.199185883        4.199185883
    149     69      0      0      0     -1 ( 0, 0, 0) 0   0        4.295153632        4.295153632
    150     70      0      0      0      1 ( 0, 0, 0) 0   0        4.295153632        4.295153632
    151    157      0      0      0     -1 ( 0, 0, 2) 2   0        4.919781112        4.919781112
    152    158      0      0      0      1 ( 0, 0, 2) 2   0        4.919781112        4.919781112
    153    117      0      0      0     -1 ( 0, 0, 1) 1   0        4.966958710        4.966958710
    154    118      0      0      0      1 ( 0, 0, 1) 1   0        4.966958710        4.966958710
    155     71      0      0      0     -1 ( 0, 0, 0) 0   0        5.008195143        5.008195143
    156     72      0      0      0      1 ( 0, 0, 0) 0   0        5.008195143        5.008195143
    157    119      0      0      0     -1 ( 0, 0, 1) 1   0        5.326803923        5.326803923
    158    120      0      0      0      1 ( 0, 0, 1) 1   0        5.326803923        5.326803923
    159    159      0      0      0     -1 ( 0, 0, 2) 2   0        5.326803923        5.326803923
    160    160      0      0      0      1 ( 0, 0, 2) 2   0        5.326803923        5.326803923
    161     73      0      0      0     -1 ( 0, 0, 0) 0   0        5.577089235        5.577089235
    162     74      0      0      0      1 ( 0, 0, 0) 0   0        5.577089235        5.577089235
    163    181      0      0      0     -1 ( 0, 0, 3) 3   0        5.577089235        5.577089235
    164    182      0      0      0      1 ( 0, 0, 3) 3   0        5.577089235        5.577089235
    165     75      0      0      0     -1 ( 0, 0, 0) 0   0        5.825827799        5.825827799
    166     76      0      0      0      1 ( 0, 0, 0) 0   0        5.825827799        5.825827799
    167    183      0      0      0     -1 ( 0, 0, 3) 3   0        5.825827799        5.825827799
    168    184      0      0      0      1 ( 0, 0, 3) 3   0        5.825827799        5.825827799
    169    161      0      0      0     -1 ( 0, 0, 2) 2   0        5.994081611        5.994081611
    170    162      0      0      0      1 ( 0, 0, 2) 2   0        5.994081611        5.994081611
    171    121      0      0      0     -1 ( 0, 0, 1) 1   0        6.036297180        6.036297180
    172    122      0      0      0      1 ( 0, 0, 1) 1   0        6.036297180        6.036297180
    173    163      0      0      0     -1 ( 0, 0, 2) 2   0        6.459573234        6.459573234
    174    164      0      0      0      1 ( 0, 0, 2) 2   0        6.459573234        6.459573234
    175    123      0      0      0     -1 ( 0, 0, 1) 1   0        6.508907315        6.508907315
    176    124      0      0      0      1 ( 0, 0, 1) 1   0        6.508907315        6.508907315
    177     77      0      0      0     -1 ( 0, 0, 0) 0   0        6.541477881        6.541477881
    178     78      0      0      0      1 ( 0, 0, 0) 0   0        6.541477881        6.541477881
    179     79      0      0      0     -1 ( 0, 0, 0) 0   0        6.610135302        6.610135302
    180     80      0      0      0      1 ( 0, 0, 0) 0   0        6.610135302        6.610135302
    181     81      0      0      0     -1 ( 0, 0, 0) 0   0       11.605123540       11.605123540
    182     82      0      0      0      1 ( 0, 0, 0) 0   0       11.605123540       11.605123540
    183     83      0      0      0     -1 ( 0, 0, 0) 0   0       15.892086646       15.892086646
    184     84      0      0      0      1 ( 0, 0, 0) 0   0       15.892086646       15.892086646
 Fock operator energy:  -31.1358923115067     
 Setting normal GetUMatEl routine
Setting integer length of determinants as bit-strings to:      4
Setting integer bit-length of determinants as bit-strings to:     64
 SYMMETRY MULTIPLICATION TABLE
 No Symmetry table found.
                    10  Symmetry PAIRS
                     4  DISTINCT ORBITAL PAIR PRODUCT SYMS
 Symmetry and spin of orbitals correctly set up for excitation generators.
 Simply transferring this into a spin orbital representation.
 Not storing the H matrix.
 <D0|H|D0>=  -90.0001015914546     
 <D0|T|D0>=  -167.650373402154     
 FDET                     1                     2                     3
                     4                     5                     6
                     7                     8                     9
                    10                    11                    12
                    13                    14
 FDet has     7 alpha electrons, and     7 beta electrons.
                         21  alpha-alpha occupied electron pairs
                         21  beta-beta occupied electron pairs
                         49  alpha-beta occupied electron pairs
                       3570 alpha-alpha (vacant) hole pairs
                       3570 beta-beta (vacant) hole pairs
                       7225 alpha-beta (vacant) hole pairs
 
 Performing FCIQMC....
 
Symmetry of reference determinant is:          0
Symmetry of reference determinant from spin orbital symmetry info is:          0
*********** INITIATOR METHOD IN USE ***********
Starting with only the reference determinant in the fixed initiator space.
Value for seed is:            7

WARNING.  Error in SetupParameters
No iteration number specified. Only running for 100 iterations initially. Change with ITERATIONS option.

Reference Energy set to:       -90.0001015915
Highest energy determinant is (approximately):      69.8809245388873    
Corresponding to a correlation energy of:      159.881026130342    
 Calculating approximate pDoubles for use with excitation generator by looking a excitations from reference.
 137385 double excitations, and     426 single excitations found from reference. This will be used to calculate pDoubles.
 pDoubles set to:       0.996909
 pSingles set to:       0.003091
From analysis of reference determinant and connections, an upper bound for the timestep is:       0.0000347049
 Using initial time-step:   3.470486529328872E-005
Will dynamically update timestep to limit spawning probability to   3.00000
Initial Diagonal Shift:         0.0000000000
 Connectivity of HF determinant is:                 137811
Low memory requested for walkers, so increasing memory to 20Mb to avoid memory errors
Memory allocated for a maximum particle number per node of:         524288
Spawning vectors allowing for a total of         3000 particles to be spawned in any one iteration per core.
Reference processor is:        0
Initial reference is: (    1,    2,    3,    4,    5,    6,    7,    8,    9,   10,   11,   12,   13,   14)
Initial number of particles set to          1 and shift will be held at     0.000 until particle number gets to           10000
 Initial memory (without excitgens + temp arrays) consists of :      20.183105 Mb/Processor
 Only one array of memory to store main particle list allocated...
 Initial memory allocation sucessful...
 
        Step    Shift           WalkerCng       GrowRate        TotWalkers      Annihil         NoDied          NoBorn          Proj.E          Av.Shift        Proj.E.Cyc      NoatHF          NoatDoubs       AccRat        UniqueDets   IterTime
           0    0.000000        0.000000        0.000000        1.000000        0.000000        0.000000        0.000000        0.000000        0.000000        0.000000        1.000000        0.000000        0.000000               1   0.0000    
          10    0.000000        0.000000        1.000000        1.000000        0.000000        0.000000        0.000000        0.000000        0.000000        0.000000        1.000000        0.000000        0.000000               1   0.0000    
          20    0.000000        1.000000        1.900000        2.000000        0.000000        0.000000        1.000000      -0.5344976E-02    0.000000      -0.1068995E-01    1.000000        1.000000       0.5263158E-01           2   0.0000    
          30    0.000000        0.000000        1.052632        2.000000        0.000000        0.000000        0.000000      -0.7522559E-02    0.000000      -0.1187772E-01    1.000000        1.000000        0.000000               2   0.0000    
          40    0.000000        0.000000        1.000000        2.000000        0.000000        0.000000        0.000000      -0.8611350E-02    0.000000      -0.1187772E-01    1.000000        1.000000        0.000000               2   0.0000    
          50    0.000000        0.000000        1.000000        2.000000        0.000000        0.000000        0.000000      -0.9264625E-02    0.000000      -0.1187772E-01    1.000000        1.000000        0.000000               2   0.0000    
          60    0.000000        0.000000        1.000000        2.000000        0.000000        0.000000        0.000000      -0.9700142E-02    0.000000      -0.1187772E-01    1.000000        1.000000        0.000000               2  0.40007E-03
          70    0.000000        0.000000        1.000000        2.000000        0.000000        0.000000        0.000000      -0.1001122E-01    0.000000      -0.1187772E-01    1.000000        1.000000        0.000000               2   0.0000    
          80    0.000000        0.000000        1.000000        2.000000        0.000000        0.000000        0.000000      -0.1024454E-01    0.000000      -0.1187772E-01    1.000000        1.000000        0.000000               2   0.0000    
          90    0.000000        0.000000        1.000000        2.000000        0.000000        0.000000        0.000000      -0.1042600E-01    0.000000      -0.1187772E-01    1.000000        1.000000        0.000000               2   0.0000    
         100    0.000000        0.000000        1.000000        2.000000        0.000000        0.000000        0.000000      -0.1057117E-01    0.000000      -0.1187772E-01    1.000000        1.000000        0.000000               2   0.0000    
 - - - - - - - - - - - - - - - - - - - - - - - -
 Total loop-time:   4.000663757324219E-003
 - - - - - - - - - - - - - - - - - - - - - - - -
 
Current reference: 
(    1,    2,    3,    4,    5,    6,    7,    8,    9,   10,   11,   12,   13,   14)
1111111111111100000000000000000000000000000000000000000000000000000000000000000000000000000000000000000000000000000000000000000000000000000000000000000000000000000000000000000000000000
 
Most occupied          2 determinants as excitations from reference: 
 
 Excitation   ExcitLevel   Seniority    Walkers    Weight    Init?   Proc
1111111111111100000000000000000000000000000000000000000000000000000000000000000000000000000000000000000000000000000000000000000000000000000000000000000000000000000000000000000000000000    0    0    1.000000      0.70711  Y      0
1111111101111000000000000000000000000000000000000000000000000000000000100000000000000000000000000000010000000000000000000000000000000000000000000000000000000000000000000000000000000000    2    4   -1.000000      0.70711  N      0
 

 Load balancing information based on the last iteration:
 Mean number of determinants/process       2.0000000000
 Min number of determinants/process                  2
 Max number of determinants/process                  2


Calculating approximate errorbar for energy estimates...

Calculation has not entered variable shift phase. Error analysis therefore not performed.
Direct reblocking of instantaneous energy possible, but this would contain finite sampling bias.


RESULTS FOR STATE 1.1
=====================

 Current reference energy                             -90.000101591455
 Projected correlation energy                          -0.010571174799
 No automatic errorbar obtained for projected energy
 No reliable averaged shift correlation energy could be obtained automatically

 Total projected energy         -90.01067277
 !FCIQMC STATE 1.1 ENERGY             -90.010672766253


 
 ================================================================
 Memory usage
 Maximum memory defined is (MB) :    8192.0
 Maximum memory used is    (MB) :      90.3
 
 Large memory allocations:
 
 Name              Allocated in       Deallocated in         Size
 - - - - - - - - - - - - - - - - - - - - - - - - - - - - - - - - 
 UMat              IntInit            IntCleanup           69.8MB
 WalkVecDets       InitFCIMCPar       DeallocFciMCMemPar   16.0MB
 WalkVecH          InitFCIMCPar       DeallocFciMCMemPar    4.0MB
 TMAT2D            SetupTMAT          not deallocated     264.5KB
 SpawnVec          InitFCIMCPar       DeallocFciMCMemPar   93.8KB
 SpawnVec2         InitFCIMCPar       DeallocFciMCMemPar   93.8KB
 G1                SysInit            not deallocated      10.1KB
 Arr               SysInit            not deallocated       2.9KB
 SymReps           GENMOLPSYMREPS     EndSym                1.4KB
 SymPairProds      GenSymStatePairs   EndSym                 768B
 ================================================================

 ================================================================
 Timing report.

 Timing of most expensive procedures.

 Procedure                    Calls       CPU    system     total
 - - - - - - - - - - - - - - - - - - - - - - - - - - - - - - - - 
 NECICUBE                         1      1.86      0.00      1.86
 WalkerTime                     100      0.00      0.00      0.00
 SysInit                          1      0.00      0.00      0.00
 SyncTime                       104      0.00      0.00      0.00
 AnnihilTime                    100      0.00      0.00      0.00
 CommsTime                      100      0.00      0.00      0.00
 Compression interface          100      0.00      0.00      0.00
 Compress Sort interface        100      0.00      0.00      0.00
 AnnMainTime                    100      0.00      0.00      0.00
 SortTime                       100      0.00      0.00      0.00
 - - - - - - - - - - - - - - - - - - - - - - - - - - - - - - - - 
 Total                                   1.86      0.00      1.86

 Global CPU time          1.87
 Global system time       0.00
 Global total time        1.87
 ================================================================
 Calculation ended 07/02/2018 at 09:33:00
 ================================================================
 
 CPU-time for FCIQMC:            1.8 sec
 Elapsed-time for FCIQMC         1.9 sec


 **********************************************************************************************************************************
 DATASETS  * FILE   NREC   LENGTH (MB)   RECORD NAMES
              1      20       25.01       500      610      700      900      950      970     1000      129      960     1100   
                                          VAR    BASINP    GEOM    SYMINP    ZMAT    AOBASIS   BASIS     P2S    ABASIS      S 
                                         1400     1410     1200     1210     1080     1600     1650     1300     1700     1380   
                                           T        V       H0       H01     AOSYM     SMH    MOLCAS    ERIS     OPER     JKOP   

              2       6        0.63       700     1000      520     2200     2100     2140   
                                         GEOM     BASIS   MCVARS     UHF      RHF     MCSCF   

 PROGRAMS   *        TOTAL    FCIQMC    CASSCF  UCCSD(T)  RCCSD(T)     RCISD       RHF       UHF       INT
 CPU TIMES  *        13.12      6.23      0.48      2.35      2.34      0.79      0.02      0.21      0.57
 REAL TIME  *        20.21 SEC
 DISK USED  *        56.17 MB      
 **********************************************************************************************************************************

        FCIQMC          CASSCF          UCCSD(T)        RCCSD(T)        RCISD           RHF-SCF         UHF-SCF 
    -90.01067277    -92.46077630    -92.71309800    -92.71309800    -92.66554484    -92.34118396    -92.34118396
 **********************************************************************************************************************************
 Variable memory released
