 **********************************************************************
                          MRCC program system
 **********************************************************************
 
                              Written by
    Mihaly Kallay, Zoltan Rolik, Jozsef Csontos, Istvan Ladjanszki,
       Lorant Szegedy, Bence Ladoczki, Gyula Samu, Klara Petrov,
        Mate Farkas, Peter Nagy, David Mester, and Bence Hegely
 
        Department of Physical Chemistry and Materials Science
            Budapest University of Technology and Economics
                  Budapest P.O.Box 91, H-1521 Hungary
 
                              www.mrcc.hu

 ************************ 2018-02-07 03:08:17 *************************
 Executing minp...

 Reading input from MINP...
 
 Input file:
 
# TITLE
basis=aVTZ-EMSL
#iface=cfour
uncontract=off
itol=18
calc=CCSDT(Q)
mem=18GB
core=frozen
scftol=10
cctol=7
ccmaxit=999
scfmaxit=9999
scftype=UHF
scfiguess=ao
charge=-1
rest=2
mult=1
unit=bohr
geom
C
N 1 R

R=2.2357



 
 
 Checking keyword combinations...
 
 Keywords:
 
 active=none
 agrid=ld0006-ld0590
 basis=avtz-emsl
 basopt=off
 bpcompo=0.985
 bpcompv=0.98
 bpdfo=0.985
 bpocc=0.985
 bppdo=0.985
 bppdv=0.98
 bpedo=0.985
 bpedv=0.98
 calc=ccsdt(q)
 ccmaxit=999
 ccprog=mrcc
 cctol=7
 charge=-1
 cialg=disk
 ciguess=off
 cmpgrp=auto
 core=frozen
 corembed=off
 dboc=off
 dendec=cholesky
 dens=0
 dfalg=invsqrt
 dfbasis_cor=none
 dfbasis_scf=none
 dfintran=ovirt
 dft=off
 diag=david
 domrad=10.d0
 drpaalg=fit
 ecp=auto
 edisp=off
 embed=off
 epert=none
 eps=0.975
 excrad=0.d0
 excrad_fin=0.000000000D+00
 freq=off
 gauss=spher
 geom=zmat
 gopt=off
 ghost=none
 gtol=7
 grtol=10
 hamilton=dc
 iface=none
 intalg=auto
 itol=18
 lcorthr=loose
 lccrest=off
 lmp2dens=on
 lnoepso=3e-5
 lnoepsv=1e-6
 localcc=off
 locintrf=disk
 maxact=off
 maxex=0
 bfbasis=none
 mem=18gb
 molden=on
 mulmet=0
 mult=1
 nacto=0
 nactv=0
 naf_cor=off
 naf_scf=off
 nafalg=albe
 naftyp=
 nchol=auto
 ndeps=1e-3
 nstate=1
 nsing=0
 ntrip=0
 occ=
 optalg=
 optmaxit=50
 optetol=1e-6
 optgtol=1e-4
 optstol=1e-3
 orblocc=off
 orbloco=off
 orblocv=off
 osveps=1e-3
 ovirt=off
 ovosnorb=80.0
 ptfreq=0.0
 popul=off
 pressure=100000
 qmmm=off
 refdet=none
 rest=2
 rgrid=log3
 rohftype=semicanonical
 scspe=1.d0
 scsps=1.2d0
 scspt=0.33333333333333
 scfalg=auto
 scfdamp=off
 scfdiis=on
 scfdiis_end=9999
 scfdiis_start=1
 scfdiis_step=1
 scfdtol=14
 scfext=10
 scfiguess=ao
 scflshift=off
 scfmaxit=9999
 scftype=uhf
 scftol=10
 spairtol=1e-4
 symm=
 talg=occ
 temp=298.15
 test=off
 tprint=off
 uncontract=off
 unit=bohr
 verbosity=2
 wpairtol=0.100000000E-05

 ************************ 2018-02-07 03:08:18 *************************
 Executing integ...

 Allocation of 18.0 Gbytes of memory...
 
 Number of atoms:            2
 Charge:                    -1
 Number of electrons:       14
 Number of core electrons:   4
 Spin multiplicity:          1
 
                 Cartesian coordinates [bohr]      Atomic mass [AMU]  Z
   1  C     0.00000000    0.00000000    0.00000000    12.000000       6
   2  N     2.23570000    0.00000000    0.00000000    14.003074       7
 
 This molecule is linear.
 
 Rotational constants [cm-1]: 
      1.863748213765
 
 Point group: Cxv 
 Computational point group: C2v 
 
 Cartesian coordinates in standard orientation [bohr]
   1  C     0.00000000    0.00000000   -1.20396044
   2  N     0.00000000    0.00000000    1.03173956
 
 Nuclear repulsion energy [au]:         18.786062530751
 
 
 Basis set information:
 
 Maximum angular momentum: f
 Maximum number of contracted Gaussians:    5
 Maximum number of primitive Gaussians:    11
 Spherical harmonic GTOs are used.
 
    1  C  avtz-emsl [ 11s 6p 3d 2f | 5s 4p 3d 2f ]
    2  N  avtz-emsl [ 11s 6p 3d 2f | 5s 4p 3d 2f ]
 
 Total number of basis functions:    92
 
 
 Character table for point group C2v:
 
          E  C2  Qh  Qv  
    A1    1   1   1   1
    B1    1  -1   1  -1
    B2    1  -1  -1   1
    A2    1   1  -1  -1
 
 Number of basis functions per irrep:
    A1     38
    B1     22
    B2     22
    A2     10
 
 
 Calculation of overlap integrals...
 CPU time [min]:     0.164                   Wall time [min]:     0.022
 Calculation of kinetic energy integrals...
 CPU time [min]:     0.203                   Wall time [min]:     0.024
 Calculation of nuclear attraction integrals...
 CPU time [min]:     0.221                   Wall time [min]:     0.025
 
 Calculation of prescreening integrals...
 CPU time [min]:     0.356                   Wall time [min]:     0.029
 
 Calculation of two-electron integrals...
   2% done.
  22% done.
  52% done.
 100% done.
 CPU time [min]:     1.281                   Wall time [min]:     0.160

 ************************ 2018-02-07 03:08:28 *************************
 Executing scf...

 Allocation of 18.0 Gbytes of memory...
 ======================================================================
 ITERATION STEP   1
 CPU time [min]:     0.047                   Wall time [min]:     0.031
 
 ALPHA OCC:   5   1   1   0
 BETA  OCC:   5   1   1   0
 ***HARTREE-FOCK ENERGY IN STEP   1 IS     -95.7431629846673786 [AU]
 ======================================================================
 ITERATION STEP   2
 CPU time [min]:     0.165                   Wall time [min]:     0.040
 
 ALPHA OCC:   5   1   1   0
 BETA  OCC:   5   1   1   0
 ***HARTREE-FOCK ENERGY IN STEP   2 IS     -92.1207777553279357 [AU]
 ======================================================================
 ITERATION STEP   3
 CPU time [min]:     0.300                   Wall time [min]:     0.049
 
 ALPHA OCC:   5   1   1   0
 BETA  OCC:   5   1   1   0
 ***HARTREE-FOCK ENERGY IN STEP   3 IS     -92.2747511079994212 [AU]
 ======================================================================
 ITERATION STEP   4
 CPU time [min]:     0.370                   Wall time [min]:     0.053
 
 ALPHA OCC:   5   1   1   0
 BETA  OCC:   5   1   1   0
 ***HARTREE-FOCK ENERGY IN STEP   4 IS     -92.3372626413575261 [AU]
 ======================================================================
 ITERATION STEP   5
 CPU time [min]:     0.476                   Wall time [min]:     0.060
 
 ALPHA OCC:   5   1   1   0
 BETA  OCC:   5   1   1   0
 ***HARTREE-FOCK ENERGY IN STEP   5 IS     -92.3405747370156575 [AU]
 ======================================================================
 ITERATION STEP   6
 CPU time [min]:     0.570                   Wall time [min]:     0.066
 
 ALPHA OCC:   5   1   1   0
 BETA  OCC:   5   1   1   0
 ***HARTREE-FOCK ENERGY IN STEP   6 IS     -92.3411247801183777 [AU]
 ======================================================================
 ITERATION STEP   7
 CPU time [min]:     0.711                   Wall time [min]:     0.076
 
 ALPHA OCC:   5   1   1   0
 BETA  OCC:   5   1   1   0
 ***HARTREE-FOCK ENERGY IN STEP   7 IS     -92.3411821844470353 [AU]
 ======================================================================
 ITERATION STEP   8
 CPU time [min]:     0.758                   Wall time [min]:     0.079
 
 ALPHA OCC:   5   1   1   0
 BETA  OCC:   5   1   1   0
 ***HARTREE-FOCK ENERGY IN STEP   8 IS     -92.3411839144433202 [AU]
 ======================================================================
 ITERATION STEP   9
 CPU time [min]:     0.853                   Wall time [min]:     0.085
 
 ALPHA OCC:   5   1   1   0
 BETA  OCC:   5   1   1   0
 ***HARTREE-FOCK ENERGY IN STEP   9 IS     -92.3411839561637464 [AU]
 ======================================================================
 ITERATION STEP  10
 CPU time [min]:     0.899                   Wall time [min]:     0.088
 
 ALPHA OCC:   5   1   1   0
 BETA  OCC:   5   1   1   0
 ***HARTREE-FOCK ENERGY IN STEP  10 IS     -92.3411839567999380 [AU]
 ======================================================================
 ITERATION STEP  11
 CPU time [min]:     0.943                   Wall time [min]:     0.091
 
 ALPHA OCC:   5   1   1   0
 BETA  OCC:   5   1   1   0
 ***HARTREE-FOCK ENERGY IN STEP  11 IS     -92.3411839568117756 [AU]
 ======================================================================
 ITERATION STEP  12
 CPU time [min]:     0.988                   Wall time [min]:     0.094
 
 ALPHA OCC:   5   1   1   0
 BETA  OCC:   5   1   1   0
 ***HARTREE-FOCK ENERGY IN STEP  12 IS     -92.3411839568126851 [AU]
 ======================================================================
 ITERATION STEP  13
 CPU time [min]:     1.032                   Wall time [min]:     0.097
 
 ALPHA OCC:   5   1   1   0
 BETA  OCC:   5   1   1   0
 ***HARTREE-FOCK ENERGY IN STEP  13 IS     -92.3411839568127562 [AU]
 ======================================================================
 
 SUCCESS...
 THE SCF ITERATION HAS CONVERGED!
 
                   A1  B1  B2  A2  
 FINAL ALPHA OCC:   5   1   1   0
 FINAL BETA  OCC:   5   1   1   0
 
 ***FINAL HARTREE-FOCK ENERGY:    -92.3411839568127562 [AU]
 
 RETURNING FROM SCF ALGORITHM
 ======================================================================

 ************************ 2018-02-07 03:08:35 *************************
 Executing ovirt...

 ovirt, the routine of orbital optimization and integral transformation 
Wed Feb  7 03:08:35 EST 2018
 Allocated memory:                   18432  Mb
 UHF calculation! 
 integral transformation: AOs --- MOs (alpha-alpha)
 # of basis functions, # of int. blocks    92     1
100 % 
 second part
100 %
 integral transformation is completed! 
 integral transformation: AOs ------ MOs (beta-beta)
 # of basis functions, # of int. blocks    92     1
100 % 
 second part
100 %
 integral transformation is completed! 
 integral transformation: AOs ----- MOs (alpha-beta)
 size                  59248                     1
# of basis functions, # of int. blocks    92     1
 integral transformation
======================================== 
Wed Feb  7 03:13:15 EST 2018
  ovirt terminated normally 

 ************************ 2018-02-07 03:13:17 *************************
 Executing goldstone...

 Generation of CC equations in terms of H and T...
 Generation of antisymmetrized Goldstone diagrams...
 Number of diagrams in T^1 equations:    15
 Number of diagrams in T^2 equations:    38
 Number of diagrams in T^3 equations:    49
 Number of diagrams in T^4 equations:     5
 Translation of diagrams to factorized equations...
 Optimizing intermediate calculation...
 Number of floating-point operations per iteration step:   3.6045E+12
 Probable CPU time per iteration step (hours):     36.04
 Required memory (Mbytes):   13452.4
 Number of intermediates:                                  79
 Number of intermediates to be stored:                     32
 Length of intermediate file (Mbytes):     310.9

 ************************ 2018-02-07 03:13:18 *************************
 Executing xmrcc...

 **********************************************************************
 CC(3)(4) calculation 
 
 
 Allocation of9216.0 Mbytes of memory...
 Number of spinorbitals:                   180
 Number of alpha electrons:                        5
 Number of beta electrons:                         5
 Spin multiplicity:                     1
 z-component of spin:  0.0
 Spatial symmetry:                      1
 Convergence criterion:  1.0E-07
 Construction of occupation graphs...
 Number of                     0 -fold excitations:                      1
 Number of                     1 -fold excitations:                    282
 Number of                     2 -fold excitations:                  65873
 Number of                     3 -fold excitations:                8108704
 Total number of configurations:                8174860
 Calculation of coupling coefficients...
 Length of intermediate file (Mbytes):     234.6
 
 ======================================================================
 
 Spin case  1   Alpha:  0   Beta:  4
 Number of excitations:                2528981
 Spin case  2   Alpha:  1   Beta:  3
 Number of excitations:              104870144
 Spin case  3   Alpha:  2   Beta:  2
 Number of excitations:              318722832
 Spin case  4   Alpha:  3   Beta:  1
 Number of excitations:              104870144
 Spin case  5   Alpha:  4   Beta:  0
 Number of excitations:                2528981
 Number of                     4 -fold excitations:              533521082
 
 Memory requirements /Mbyte/: 
               Minimal        Optimal
 Real*8:       1059.9950      1155.4747
 Integer:        19.1854
 Total:        1079.1804      1174.6601
 

 ************************ 2018-02-07 03:13:32 *************************
 Executing goldstone...

 Generation of CC equations in terms of H and T...
 Generation of antisymmetrized Goldstone diagrams...
 Number of diagrams in T^1 equations:    15
 Number of diagrams in T^2 equations:    33
 Number of diagrams in T^3 equations:     2
 Translation of diagrams to factorized equations...
 Optimizing intermediate calculation...
 Number of floating-point operations per iteration step:   1.1842E+10
 Probable CPU time per iteration step (hours):      0.12
 Required memory (Mbytes):    6873.0
 Number of intermediates:                                  48
 Number of intermediates to be stored:                     20
 Length of intermediate file (Mbytes):     249.8

 ************************ 2018-02-07 03:13:33 *************************
 Executing xmrcc...

 **********************************************************************
 CC(2)(3) calculation 
 
 
 Allocation of6873.0 Mbytes of memory...
 Number of spinorbitals:                   180
 Number of alpha electrons:                        5
 Number of beta electrons:                         5
 Spin multiplicity:                     1
 z-component of spin:  0.0
 Spatial symmetry:                      1
 Convergence criterion:  1.0E-07
 Construction of occupation graphs...
 Number of                     0 -fold excitations:                      1
 Number of                     1 -fold excitations:                    282
 Number of                     2 -fold excitations:                  65873
 Total number of configurations:                  66156
 Calculation of coupling coefficients...
 Length of intermediate file (Mbytes):     190.7
 
 ======================================================================
 
 Spin case  1   Alpha:  0   Beta:  3
 Number of excitations:                 245888
 Spin case  2   Alpha:  1   Beta:  2
 Number of excitations:                3808464
 Spin case  3   Alpha:  2   Beta:  1
 Number of excitations:                3808464
 Spin case  4   Alpha:  3   Beta:  0
 Number of excitations:                 245888
 Number of                     3 -fold excitations:                8108704
 
 Memory requirements /Mbyte/: 
               Minimal        Optimal
 Real*8:        292.5133       686.5757
 Integer:         0.8179
 Total:         293.3312       687.3936
 

 ************************ 2018-02-07 03:13:34 *************************
 Executing mrcc...

 **********************************************************************
 CCSD(T) calculation                                                    
 
 
 OpenMP parallel version is running.
 Number of CPUs:  32
 Allocation of  686.6 Mbytes of memory...
 Number of spinorbitals: 180
 Number of alpha electrons:  5
 Number of beta  electrons:  5
 Spin multiplicity: 1
 z-component of spin:  0.0
 Spatial symmetry: 1
 Convergence criterion:  1.0E-07
 Construction of occupation graphs...
 Number of 0-fold excitations: 1
 Number of 1-fold excitations: 282
 Number of 2-fold excitations: 65873
 Total number of determinants: 66156
 Calculation of coupling coefficients...
 Initial cluster amplitudes are generated.
 Length of intermediate file (Mbytes):     190.7
 Reading integral list from unit 55...
 Sorting integrals...
 Sorting integrals...
 Sorting integrals...
 Sorting integrals...
 Energy of reference determinant [au]:     -92.341183956813
 Calculation of MP denominators...
 
 Starting CC iteration...
 ======================================================================
 Norm of residual vector:     1.17246969
 CPU time [min]:     6.671                   Wall time [min]:     1.894
 
 Iteration  1  CC energy:   -92.69297773  Energy decrease:   0.35179377
 ======================================================================
 Norm of residual vector:     0.21347082
 CPU time [min]:    11.178                   Wall time [min]:     2.568
 
 Iteration  2  CC energy:   -92.67965965  Energy decrease:   0.01331808
 ======================================================================
 Norm of residual vector:     0.05641490
 CPU time [min]:    15.646                   Wall time [min]:     3.163
 
 Iteration  3  CC energy:   -92.69131266  Energy decrease:   0.01165301
 ======================================================================
 Norm of residual vector:     0.01638842
 CPU time [min]:    20.402                   Wall time [min]:     4.219
 
 Iteration  4  CC energy:   -92.69298432  Energy decrease:   0.00167167
 ======================================================================
 Norm of residual vector:     0.00633110
 CPU time [min]:    24.785                   Wall time [min]:     4.780
 
 Iteration  5  CC energy:   -92.69283138  Energy decrease:   0.00015295
 ======================================================================
 Norm of residual vector:     0.00215093
 CPU time [min]:    29.875                   Wall time [min]:     5.941
 
 Iteration  6  CC energy:   -92.69284771  Energy decrease:   0.00001633
 ======================================================================
 Norm of residual vector:     0.00065393
 CPU time [min]:    34.445                   Wall time [min]:     6.591
 
 Iteration  7  CC energy:   -92.69284511  Energy decrease:   0.00000260
 ======================================================================
 Norm of residual vector:     0.00022548
 CPU time [min]:    38.702                   Wall time [min]:     7.342
 
 Iteration  8  CC energy:   -92.69283831  Energy decrease:   0.00000680
 ======================================================================
 Norm of residual vector:     0.00009102
 CPU time [min]:    43.284                   Wall time [min]:     8.157
 
 Iteration  9  CC energy:   -92.69283783  Energy decrease:   0.00000048
 ======================================================================
 Norm of residual vector:     0.00002878
 CPU time [min]:    48.133                   Wall time [min]:     8.843
 
 Iteration 10  CC energy:   -92.69283799  Energy decrease:   0.00000016
 ======================================================================
 Norm of residual vector:     0.00000885
 CPU time [min]:    52.551                   Wall time [min]:     9.642
 
 Iteration 11  CC energy:   -92.69283771  Energy decrease:   0.00000028
 ======================================================================
 Norm of residual vector:     0.00000272
 CPU time [min]:    57.188                   Wall time [min]:    10.647
 
 Iteration 12  CC energy:   -92.69283764  Energy decrease:   0.00000007
 ======================================================================
 Norm of residual vector:     0.00000081
 CPU time [min]:    62.309                   Wall time [min]:    11.172
 
 Iteration 13  CC energy:   -92.69283767  Energy decrease:   0.00000003
 ======================================================================
 Norm of residual vector:     0.00000027
 CPU time [min]:    66.835                   Wall time [min]:    12.344
 
 Iteration 14  CC energy:   -92.69283768  Energy decrease:   0.00000001
 ======================================================================
 Norm of residual vector:     0.00000009
 CPU time [min]:    70.842                   Wall time [min]:    12.740
 
 Iteration 15  CC energy:   -92.69283767  Energy decrease:   3.4810E-09
 ======================================================================
 
 Iteration has converged in 15 steps.
 
 Final results:
 Total CCSD energy [au]:             -92.692837672897
 Total MP2 energy [au]:              -92.692977728434
 
 Perturbative corrections are calculated...
 ======================================================================
 Spin case  1   Alpha:  0   Beta:  3
 Number of excitations:        245888
 CPU time [min]:    71.152                   Wall time [min]:    12.753
 ======================================================================
 Spin case  2   Alpha:  1   Beta:  2
 Number of excitations:        3808464
 CPU time [min]:    72.022                   Wall time [min]:    12.780
 ======================================================================
 Spin case  3   Alpha:  2   Beta:  1
 Number of excitations:        3808464
 CPU time [min]:    72.889                   Wall time [min]:    12.807
 ======================================================================
 Spin case  4   Alpha:  3   Beta:  0
 Number of excitations:        245888
 CPU time [min]:    73.278                   Wall time [min]:    12.972
 ======================================================================
 Number of 3-fold excitations: 8108704
 CPU time [min]:    73.278                   Wall time [min]:    12.972
 
 Total CCSD[T] energy [au]:          -92.714001384978
 Total CCSD(T) energy [au]:          -92.713097996516

 ************************ 2018-02-07 03:26:34 *************************
 Executing goldstone...

 Generation of CC equations in terms of H and T...
 Generation of antisymmetrized Goldstone diagrams...
 Number of diagrams in T^1 equations:    15
 Number of diagrams in T^2 equations:    38
 Number of diagrams in T^3 equations:    49
 Number of diagrams in T^4 equations:     5
 Translation of diagrams to factorized equations...
 Optimizing intermediate calculation...
 Number of floating-point operations per iteration step:   3.6045E+12
 Probable CPU time per iteration step (hours):     36.04
 Required memory (Mbytes):   13452.4
 Number of intermediates:                                  79
 Number of intermediates to be stored:                     32
 Length of intermediate file (Mbytes):     310.9

 ************************ 2018-02-07 03:26:37 *************************
 Executing xmrcc...

 **********************************************************************
 CC(3)(4) calculation 
 
 
 Allocation of9216.0 Mbytes of memory...
 Number of spinorbitals:                   180
 Number of alpha electrons:                        5
 Number of beta electrons:                         5
 Spin multiplicity:                     1
 z-component of spin:  0.0
 Spatial symmetry:                      1
 Convergence criterion:  1.0E-07
 Construction of occupation graphs...
 Number of                     0 -fold excitations:                      1
 Number of                     1 -fold excitations:                    282
 Number of                     2 -fold excitations:                  65873
 Number of                     3 -fold excitations:                8108704
 Total number of configurations:                8174860
 Calculation of coupling coefficients...
 Length of intermediate file (Mbytes):     234.6
 
 ======================================================================
 
 Spin case  1   Alpha:  0   Beta:  4
 Number of excitations:                2528981
 Spin case  2   Alpha:  1   Beta:  3
 Number of excitations:              104870144
 Spin case  3   Alpha:  2   Beta:  2
 Number of excitations:              318722832
 Spin case  4   Alpha:  3   Beta:  1
 Number of excitations:              104870144
 Spin case  5   Alpha:  4   Beta:  0
 Number of excitations:                2528981
 Number of                     4 -fold excitations:              533521082
 
 Memory requirements /Mbyte/: 
               Minimal        Optimal
 Real*8:       1059.9950      1155.4747
 Integer:        19.1854
 Total:        1079.1804      1174.6601
 

 ************************ 2018-02-07 03:26:45 *************************
 Executing mrcc...

 **********************************************************************
 CCSDT(Q) calculation                                                   
 
 
 OpenMP parallel version is running.
 Number of CPUs:  32
 Allocation of 1155.5 Mbytes of memory...
 Number of spinorbitals: 180
 Number of alpha electrons:  5
 Number of beta  electrons:  5
 Spin multiplicity: 1
 z-component of spin:  0.0
 Spatial symmetry: 1
 Convergence criterion:  1.0E-07
 Construction of occupation graphs...
 Number of 0-fold excitations: 1
 Number of 1-fold excitations: 282
 Number of 2-fold excitations: 65873
 Number of 3-fold excitations: 8108704
 Total number of determinants: 8174860
 Calculation of coupling coefficients...
 Initial cluster amplitudes are read from unit 16.
 Length of intermediate file (Mbytes):     234.6
 Reading integral list from unit 55...
 Sorting integrals...
 Sorting integrals...
 Sorting integrals...
 Sorting integrals...
 Energy of reference determinant [au]:     -92.341183956813
 Calculation of MP denominators...
 
 Starting CC iteration...
 ======================================================================
 Norm of residual vector:     0.32537373
 CPU time [min]:    69.069                   Wall time [min]:     5.220
 
 Iteration  1  CC energy:   -92.69283767  Energy decrease:   3.3130E-10
 ======================================================================
 Norm of residual vector:     0.07918583
 CPU time [min]:   133.898                   Wall time [min]:     8.985
 
 Iteration  2  CC energy:   -92.70836828  Energy decrease:   0.01553060
 ======================================================================
 Norm of residual vector:     0.02977746
 CPU time [min]:   202.009                   Wall time [min]:    13.071
 
 Iteration  3  CC energy:   -92.71172382  Energy decrease:   0.00335555
 ======================================================================
 Norm of residual vector:     0.00886321
 CPU time [min]:   268.083                   Wall time [min]:    16.592
 
 Iteration  4  CC energy:   -92.71243169  Energy decrease:   0.00070786
 ======================================================================
 Norm of residual vector:     0.00374391
 CPU time [min]:   332.897                   Wall time [min]:    19.607
 
 Iteration  5  CC energy:   -92.71281635  Energy decrease:   0.00038466
 ======================================================================
 Norm of residual vector:     0.00142553
 CPU time [min]:   404.322                   Wall time [min]:    23.317
 
 Iteration  6  CC energy:   -92.71283515  Energy decrease:   0.00001880
 ======================================================================
 Norm of residual vector:     0.00065595
 CPU time [min]:   476.697                   Wall time [min]:    28.106
 
 Iteration  7  CC energy:   -92.71282855  Energy decrease:   0.00000660
 ======================================================================
 Norm of residual vector:     0.00031182
 CPU time [min]:   551.295                   Wall time [min]:    32.808
 
 Iteration  8  CC energy:   -92.71283490  Energy decrease:   0.00000635
 ======================================================================
 Norm of residual vector:     0.00012967
 CPU time [min]:   624.070                   Wall time [min]:    36.865
 
 Iteration  9  CC energy:   -92.71283853  Energy decrease:   0.00000363
 ======================================================================
 Norm of residual vector:     0.00005442
 CPU time [min]:   694.325                   Wall time [min]:    40.964
 
 Iteration 10  CC energy:   -92.71283939  Energy decrease:   0.00000085
 ======================================================================
 Norm of residual vector:     0.00002271
 CPU time [min]:   765.783                   Wall time [min]:    45.141
 
 Iteration 11  CC energy:   -92.71283913  Energy decrease:   0.00000026
 ======================================================================
 Norm of residual vector:     0.00000844
 CPU time [min]:   837.032                   Wall time [min]:    49.278
 
 Iteration 12  CC energy:   -92.71283910  Energy decrease:   0.00000003
 ======================================================================
 Norm of residual vector:     0.00000360
 CPU time [min]:   914.391                   Wall time [min]:    53.897
 
 Iteration 13  CC energy:   -92.71283918  Energy decrease:   0.00000008
 ======================================================================
 Norm of residual vector:     0.00000145
 CPU time [min]:   987.406                   Wall time [min]:    58.844
 
 Iteration 14  CC energy:   -92.71283920  Energy decrease:   0.00000002
 ======================================================================
 Norm of residual vector:     0.00000058
 CPU time [min]:  1065.874                   Wall time [min]:    63.726
 
 Iteration 15  CC energy:   -92.71283919  Energy decrease:   0.00000001
 ======================================================================
 Norm of residual vector:     0.00000023
 CPU time [min]:  1141.736                   Wall time [min]:    68.274
 
 Iteration 16  CC energy:   -92.71283919  Energy decrease:   4.3219E-09
 ======================================================================
 Norm of residual vector:     0.00000010
 CPU time [min]:  1215.507                   Wall time [min]:    72.009
 
 Iteration 17  CC energy:   -92.71283919  Energy decrease:   1.3870E-09
 ======================================================================
 Norm of residual vector:     0.00000005
 CPU time [min]:  1276.658                   Wall time [min]:    75.479
 
 Iteration 18  CC energy:   -92.71283919  Energy decrease:   5.2140E-11
 ======================================================================
 
 Iteration has converged in 18 steps.
 
 Final results:
 Total CCSDT energy [au]:            -92.712839187768
 
 Perturbative corrections are calculated...
 ======================================================================
 Spin case  1   Alpha:  0   Beta:  4
 Number of excitations:        2528981
 CPU time [min]:  1292.388                   Wall time [min]:    76.119
 ======================================================================
 Spin case  2   Alpha:  1   Beta:  3
 Number of excitations:        104870144
 CPU time [min]:  1544.379                   Wall time [min]:    84.937
 ======================================================================
 Spin case  3   Alpha:  2   Beta:  2
 Number of excitations:        318722832
 CPU time [min]:  2110.181                   Wall time [min]:   104.973
 ======================================================================
 Spin case  4   Alpha:  3   Beta:  1
 Number of excitations:        104870144
 CPU time [min]:  2322.194                   Wall time [min]:   112.444
 ======================================================================
 Spin case  5   Alpha:  4   Beta:  0
 Number of excitations:        2528981
 CPU time [min]:  2334.697                   Wall time [min]:   112.899
 ======================================================================
 Number of 4-fold excitations: 533521082
 CPU time [min]:  2334.697                   Wall time [min]:   112.899
 
 Total CCSDT[Q] energy [au]:         -92.713371978475
 Total CCSDT(Q) energy [au]:         -92.714597414885
 
 ************************ 2018-02-07 05:19:40 *************************
                      Normal termination of mrcc.
 **********************************************************************
--- SharcNET Job Epilogue ---
Job completed successfully.
               jobid: 1521309
               resid: 3002627
         exit status: 0
      allocated time: 7884.21
           user time: 129622
         system time: 15198
peak rss=5632274432; peak vsz=5632274432 (bytes)
atime=7884.21; utime=129622; stime=15198; exit=0
