 **********************************************************************
                          MRCC program system
 **********************************************************************
 
                              Written by
    Mihaly Kallay, Zoltan Rolik, Jozsef Csontos, Istvan Ladjanszki,
       Lorant Szegedy, Bence Ladoczki, Gyula Samu, Klara Petrov,
        Mate Farkas, Peter Nagy, David Mester, and Bence Hegely
 
        Department of Physical Chemistry and Materials Science
            Budapest University of Technology and Economics
                  Budapest P.O.Box 91, H-1521 Hungary
 
                              www.mrcc.hu

 ************************ 2018-02-07 02:56:30 *************************
 Executing minp...

 Reading input from MINP...
 
 Input file:
 
# TITLE
basis=aVTZ-EMSL
#iface=cfour
uncontract=off
itol=18
calc=CCSDT(Q)
mem=18GB
core=frozen
scftol=10
cctol=7
ccmaxit=999
scfmaxit=9999
scftype=UHF
scfiguess=ao
charge=0
rest=2
mult=2
unit=bohr
geom
C
N 1 R

R=2.2196



 
 
 Checking keyword combinations...
 
 Keywords:
 
 active=none
 agrid=ld0006-ld0590
 basis=avtz-emsl
 basopt=off
 bpcompo=0.985
 bpcompv=0.98
 bpdfo=0.985
 bpocc=0.985
 bppdo=0.985
 bppdv=0.98
 bpedo=0.985
 bpedv=0.98
 calc=ccsdt(q)
 ccmaxit=999
 ccprog=mrcc
 cctol=7
 charge=0
 cialg=disk
 ciguess=off
 cmpgrp=auto
 core=frozen
 corembed=off
 dboc=off
 dendec=cholesky
 dens=0
 dfalg=invsqrt
 dfbasis_cor=none
 dfbasis_scf=none
 dfintran=ovirt
 dft=off
 diag=david
 domrad=10.d0
 drpaalg=fit
 ecp=auto
 edisp=off
 embed=off
 epert=none
 eps=0.975
 excrad=0.d0
 excrad_fin=0.000000000D+00
 freq=off
 gauss=spher
 geom=zmat
 gopt=off
 ghost=none
 gtol=7
 grtol=10
 hamilton=dc
 iface=none
 intalg=auto
 itol=18
 lcorthr=loose
 lccrest=off
 lmp2dens=on
 lnoepso=3e-5
 lnoepsv=1e-6
 localcc=off
 locintrf=disk
 maxact=off
 maxex=0
 bfbasis=none
 mem=18gb
 molden=on
 mulmet=0
 mult=2
 nacto=0
 nactv=0
 naf_cor=off
 naf_scf=off
 nafalg=albe
 naftyp=
 nchol=auto
 ndeps=1e-3
 nstate=1
 nsing=0
 ntrip=0
 occ=
 optalg=
 optmaxit=50
 optetol=1e-6
 optgtol=1e-4
 optstol=1e-3
 orblocc=off
 orbloco=off
 orblocv=off
 osveps=1e-3
 ovirt=off
 ovosnorb=80.0
 ptfreq=0.0
 popul=off
 pressure=100000
 qmmm=off
 refdet=none
 rest=2
 rgrid=log3
 rohftype=semicanonical
 scspe=1.d0
 scsps=1.2d0
 scspt=0.33333333333333
 scfalg=auto
 scfdamp=off
 scfdiis=on
 scfdiis_end=9999
 scfdiis_start=1
 scfdiis_step=1
 scfdtol=14
 scfext=10
 scfiguess=ao
 scflshift=off
 scfmaxit=9999
 scftype=uhf
 scftol=10
 spairtol=1e-4
 symm=
 talg=occ
 temp=298.15
 test=off
 tprint=off
 uncontract=off
 unit=bohr
 verbosity=2
 wpairtol=0.100000000E-05

 ************************ 2018-02-07 02:56:30 *************************
 Executing integ...

 Allocation of 18.0 Gbytes of memory...
 
 Number of atoms:            2
 Charge:                     0
 Number of electrons:       13
 Number of core electrons:   4
 Spin multiplicity:          2
 
                 Cartesian coordinates [bohr]      Atomic mass [AMU]  Z
   1  C     0.00000000    0.00000000    0.00000000    12.000000       6
   2  N     2.21960000    0.00000000    0.00000000    14.003074       7
 
 This molecule is linear.
 
 Rotational constants [cm-1]: 
      1.890883889244
 
 Point group: Cxv 
 Computational point group: C2v 
 
 Cartesian coordinates in standard orientation [bohr]
   1  C     0.00000000    0.00000000   -1.19529034
   2  N     0.00000000    0.00000000    1.02430966
 
 Nuclear repulsion energy [au]:         18.922328347450
 
 
 Basis set information:
 
 Maximum angular momentum: f
 Maximum number of contracted Gaussians:    5
 Maximum number of primitive Gaussians:    11
 Spherical harmonic GTOs are used.
 
    1  C  avtz-emsl [ 11s 6p 3d 2f | 5s 4p 3d 2f ]
    2  N  avtz-emsl [ 11s 6p 3d 2f | 5s 4p 3d 2f ]
 
 Total number of basis functions:    92
 
 
 Character table for point group C2v:
 
          E  C2  Qh  Qv  
    A1    1   1   1   1
    B1    1  -1   1  -1
    B2    1  -1  -1   1
    A2    1   1  -1  -1
 
 Number of basis functions per irrep:
    A1     38
    B1     22
    B2     22
    A2     10
 
 
 Calculation of overlap integrals...
 CPU time [min]:     0.046                   Wall time [min]:     0.041
 Calculation of kinetic energy integrals...
 CPU time [min]:     0.087                   Wall time [min]:     0.043
 Calculation of nuclear attraction integrals...
 CPU time [min]:     0.101                   Wall time [min]:     0.044
 
 Calculation of prescreening integrals...
 CPU time [min]:     0.192                   Wall time [min]:     0.048
 
 Calculation of two-electron integrals...
   2% done.
  22% done.
  52% done.
 100% done.
 CPU time [min]:     0.846                   Wall time [min]:     0.087

 ************************ 2018-02-07 02:56:36 *************************
 Executing scf...

 Allocation of 18.0 Gbytes of memory...
 ======================================================================
 ITERATION STEP   1
 CPU time [min]:     0.138                   Wall time [min]:     0.045
 
 ALPHA OCC:   5   1   1   0
 BETA  OCC:   4   1   1   0
 ***HARTREE-FOCK ENERGY IN STEP   1 IS     -91.5194522012032934 [AU]
 ======================================================================
 ITERATION STEP   2
 CPU time [min]:     0.183                   Wall time [min]:     0.047
 
 ALPHA OCC:   5   1   1   0
 BETA  OCC:   4   1   1   0
 ***HARTREE-FOCK ENERGY IN STEP   2 IS     -92.1798538661152520 [AU]
 ======================================================================
 ITERATION STEP   3
 CPU time [min]:     0.335                   Wall time [min]:     0.059
 
 ALPHA OCC:   5   1   1   0
 BETA  OCC:   4   1   1   0
 ***HARTREE-FOCK ENERGY IN STEP   3 IS     -92.1923714955123756 [AU]
 ======================================================================
 ITERATION STEP   4
 CPU time [min]:     0.405                   Wall time [min]:     0.062
 
 ALPHA OCC:   5   1   1   0
 BETA  OCC:   4   1   1   0
 ***HARTREE-FOCK ENERGY IN STEP   4 IS     -92.2173361029136203 [AU]
 ======================================================================
 ITERATION STEP   5
 CPU time [min]:     0.455                   Wall time [min]:     0.064
 
 ALPHA OCC:   5   1   1   0
 BETA  OCC:   4   1   1   0
 ***HARTREE-FOCK ENERGY IN STEP   5 IS     -92.2207009706440601 [AU]
 ======================================================================
 ITERATION STEP   6
 CPU time [min]:     0.506                   Wall time [min]:     0.067
 
 ALPHA OCC:   5   1   1   0
 BETA  OCC:   4   1   1   0
 ***HARTREE-FOCK ENERGY IN STEP   6 IS     -92.2223320332820293 [AU]
 ======================================================================
 ITERATION STEP   7
 CPU time [min]:     0.556                   Wall time [min]:     0.069
 
 ALPHA OCC:   5   1   1   0
 BETA  OCC:   4   1   1   0
 ***HARTREE-FOCK ENERGY IN STEP   7 IS     -92.2238572596253761 [AU]
 ======================================================================
 ITERATION STEP   8
 CPU time [min]:     0.614                   Wall time [min]:     0.071
 
 ALPHA OCC:   5   1   1   0
 BETA  OCC:   4   1   1   0
 ***HARTREE-FOCK ENERGY IN STEP   8 IS     -92.2270951812801343 [AU]
 ======================================================================
 ITERATION STEP   9
 CPU time [min]:     0.666                   Wall time [min]:     0.073
 
 ALPHA OCC:   5   1   1   0
 BETA  OCC:   4   1   1   0
 ***HARTREE-FOCK ENERGY IN STEP   9 IS     -92.2313414722064664 [AU]
 ======================================================================
 ITERATION STEP  10
 CPU time [min]:     0.725                   Wall time [min]:     0.076
 
 ALPHA OCC:   5   1   1   0
 BETA  OCC:   4   1   1   0
 ***HARTREE-FOCK ENERGY IN STEP  10 IS     -92.2338563421603226 [AU]
 ======================================================================
 ITERATION STEP  11
 CPU time [min]:     0.777                   Wall time [min]:     0.078
 
 ALPHA OCC:   5   1   1   0
 BETA  OCC:   4   1   1   0
 ***HARTREE-FOCK ENERGY IN STEP  11 IS     -92.2339187129942388 [AU]
 ======================================================================
 ITERATION STEP  12
 CPU time [min]:     0.824                   Wall time [min]:     0.080
 
 ALPHA OCC:   5   1   1   0
 BETA  OCC:   4   1   1   0
 ***HARTREE-FOCK ENERGY IN STEP  12 IS     -92.2353681282449855 [AU]
 ======================================================================
 ITERATION STEP  13
 CPU time [min]:     1.004                   Wall time [min]:     0.088
 
 ALPHA OCC:   5   1   1   0
 BETA  OCC:   4   1   1   0
 ***HARTREE-FOCK ENERGY IN STEP  13 IS     -92.2354191416855826 [AU]
 ======================================================================
 ITERATION STEP  14
 CPU time [min]:     1.270                   Wall time [min]:     0.100
 
 ALPHA OCC:   5   1   1   0
 BETA  OCC:   4   1   1   0
 ***HARTREE-FOCK ENERGY IN STEP  14 IS     -92.2354534345354438 [AU]
 ======================================================================
 ITERATION STEP  15
 CPU time [min]:     1.509                   Wall time [min]:     0.110
 
 ALPHA OCC:   5   1   1   0
 BETA  OCC:   4   1   1   0
 ***HARTREE-FOCK ENERGY IN STEP  15 IS     -92.2354541722677652 [AU]
 ======================================================================
 ITERATION STEP  16
 CPU time [min]:     1.615                   Wall time [min]:     0.115
 
 ALPHA OCC:   5   1   1   0
 BETA  OCC:   4   1   1   0
 ***HARTREE-FOCK ENERGY IN STEP  16 IS     -92.2354542149732026 [AU]
 ======================================================================
 ITERATION STEP  17
 CPU time [min]:     1.674                   Wall time [min]:     0.118
 
 ALPHA OCC:   5   1   1   0
 BETA  OCC:   4   1   1   0
 ***HARTREE-FOCK ENERGY IN STEP  17 IS     -92.2354541384956121 [AU]
 ======================================================================
 ITERATION STEP  18
 CPU time [min]:     1.728                   Wall time [min]:     0.120
 
 ALPHA OCC:   5   1   1   0
 BETA  OCC:   4   1   1   0
 ***HARTREE-FOCK ENERGY IN STEP  18 IS     -92.2354542462452116 [AU]
 ======================================================================
 ITERATION STEP  19
 CPU time [min]:     1.777                   Wall time [min]:     0.122
 
 ALPHA OCC:   5   1   1   0
 BETA  OCC:   4   1   1   0
 ***HARTREE-FOCK ENERGY IN STEP  19 IS     -92.2354542621998235 [AU]
 ======================================================================
 ITERATION STEP  20
 CPU time [min]:     1.831                   Wall time [min]:     0.124
 
 ALPHA OCC:   5   1   1   0
 BETA  OCC:   4   1   1   0
 ***HARTREE-FOCK ENERGY IN STEP  20 IS     -92.2354542779211783 [AU]
 ======================================================================
 ITERATION STEP  21
 CPU time [min]:     1.884                   Wall time [min]:     0.127
 
 ALPHA OCC:   5   1   1   0
 BETA  OCC:   4   1   1   0
 ***HARTREE-FOCK ENERGY IN STEP  21 IS     -92.2354542779008426 [AU]
 ======================================================================
 ITERATION STEP  22
 CPU time [min]:     1.934                   Wall time [min]:     0.129
 
 ALPHA OCC:   5   1   1   0
 BETA  OCC:   4   1   1   0
 ***HARTREE-FOCK ENERGY IN STEP  22 IS     -92.2354542779932984 [AU]
 ======================================================================
 ITERATION STEP  23
 CPU time [min]:     1.989                   Wall time [min]:     0.131
 
 ALPHA OCC:   5   1   1   0
 BETA  OCC:   4   1   1   0
 ***HARTREE-FOCK ENERGY IN STEP  23 IS     -92.2354542780099962 [AU]
 ======================================================================
 ITERATION STEP  24
 CPU time [min]:     2.045                   Wall time [min]:     0.134
 
 ALPHA OCC:   5   1   1   0
 BETA  OCC:   4   1   1   0
 ***HARTREE-FOCK ENERGY IN STEP  24 IS     -92.2354542780125399 [AU]
 ======================================================================
 ITERATION STEP  25
 CPU time [min]:     2.100                   Wall time [min]:     0.136
 
 ALPHA OCC:   5   1   1   0
 BETA  OCC:   4   1   1   0
 ***HARTREE-FOCK ENERGY IN STEP  25 IS     -92.2354542780126678 [AU]
 ======================================================================
 ITERATION STEP  26
 CPU time [min]:     2.155                   Wall time [min]:     0.139
 
 ALPHA OCC:   5   1   1   0
 BETA  OCC:   4   1   1   0
 ***HARTREE-FOCK ENERGY IN STEP  26 IS     -92.2354542780126110 [AU]
 ======================================================================
 ITERATION STEP  27
 CPU time [min]:     2.209                   Wall time [min]:     0.141
 
 ALPHA OCC:   5   1   1   0
 BETA  OCC:   4   1   1   0
 ***HARTREE-FOCK ENERGY IN STEP  27 IS     -92.2354542780125541 [AU]
 ======================================================================
 ITERATION STEP  28
 CPU time [min]:     2.263                   Wall time [min]:     0.143
 
 ALPHA OCC:   5   1   1   0
 BETA  OCC:   4   1   1   0
 ***HARTREE-FOCK ENERGY IN STEP  28 IS     -92.2354542780125968 [AU]
 ======================================================================
 ITERATION STEP  29
 CPU time [min]:     2.317                   Wall time [min]:     0.146
 
 ALPHA OCC:   5   1   1   0
 BETA  OCC:   4   1   1   0
 ***HARTREE-FOCK ENERGY IN STEP  29 IS     -92.2354542780125115 [AU]
 ======================================================================
 ITERATION STEP  30
 CPU time [min]:     2.415                   Wall time [min]:     0.150
 
 ALPHA OCC:   5   1   1   0
 BETA  OCC:   4   1   1   0
 ***HARTREE-FOCK ENERGY IN STEP  30 IS     -92.2354542780127247 [AU]
 ======================================================================
 
 SUCCESS...
 THE SCF ITERATION HAS CONVERGED!
 
                   A1  B1  B2  A2  
 FINAL ALPHA OCC:   5   1   1   0
 FINAL BETA  OCC:   4   1   1   0
 
 ***FINAL HARTREE-FOCK ENERGY:    -92.2354542780127247 [AU]
 
 RETURNING FROM SCF ALGORITHM
 ======================================================================

 ************************ 2018-02-07 02:56:48 *************************
 Executing ovirt...

 ovirt, the routine of orbital optimization and integral transformation 
Wed Feb  7 02:56:49 EST 2018
 Allocated memory:                   18432  Mb
 UHF calculation! 
 integral transformation: AOs --- MOs (alpha-alpha)
 # of basis functions, # of int. blocks    92     1
100 % 
 second part
100 %
 integral transformation is completed! 
 integral transformation: AOs ------ MOs (beta-beta)
 # of basis functions, # of int. blocks    92     1
100 % 
 second part
100 %
 integral transformation is completed! 
 integral transformation: AOs ----- MOs (alpha-beta)
 size                  59248                     1
# of basis functions, # of int. blocks    92     1
 integral transformation
======================================== 
Wed Feb  7 02:58:27 EST 2018
  ovirt terminated normally 

 ************************ 2018-02-07 02:58:30 *************************
 Executing goldstone...

 Generation of CC equations in terms of H and T...
 Generation of antisymmetrized Goldstone diagrams...
 Number of diagrams in T^1 equations:    15
 Number of diagrams in T^2 equations:    38
 Number of diagrams in T^3 equations:    49
 Number of diagrams in T^4 equations:     5
 Translation of diagrams to factorized equations...
 Optimizing intermediate calculation...
 Number of floating-point operations per iteration step:   2.2960E+12
 Probable CPU time per iteration step (hours):     22.96
 Required memory (Mbytes):    8939.9
 Number of intermediates:                                  79
 Number of intermediates to be stored:                     32
 Length of intermediate file (Mbytes):     295.2

 ************************ 2018-02-07 02:58:31 *************************
 Executing xmrcc...

 **********************************************************************
 CC(3)(4) calculation 
 
 
 Allocation of8939.9 Mbytes of memory...
 Number of spinorbitals:                   180
 Number of alpha electrons:                        5
 Number of beta electrons:                         4
 Spin multiplicity:                     2
 z-component of spin:  0.5
 Spatial symmetry:                      1
 Convergence criterion:  1.0E-07
 Construction of occupation graphs...
 Number of                     0 -fold excitations:                      1
 Number of                     1 -fold excitations:                    251
 Number of                     2 -fold excitations:                  52877
 Number of                     3 -fold excitations:                5757887
 Total number of configurations:                5811016
 Calculation of coupling coefficients...
 Length of intermediate file (Mbytes):     223.8
 
 ======================================================================
 
 Spin case  1   Alpha:  0   Beta:  4
 Number of excitations:                 529826
 Spin case  2   Alpha:  1   Beta:  3
 Number of excitations:               43406180
 Spin case  3   Alpha:  2   Beta:  2
 Number of excitations:              195726972
 Spin case  4   Alpha:  3   Beta:  1
 Number of excitations:               84891416
 Spin case  5   Alpha:  4   Beta:  0
 Number of excitations:                2528981
 Number of                     4 -fold excitations:              327083375
 
 Memory requirements /Mbyte/: 
               Minimal        Optimal
 Real*8:        691.0955       807.9564
 Integer:        38.6836
 Total:         729.7791       846.6400
 

 ************************ 2018-02-07 02:58:40 *************************
 Executing goldstone...

 Generation of CC equations in terms of H and T...
 Generation of antisymmetrized Goldstone diagrams...
 Number of diagrams in T^1 equations:    15
 Number of diagrams in T^2 equations:    33
 Number of diagrams in T^3 equations:     2
 Translation of diagrams to factorized equations...
 Optimizing intermediate calculation...
 Number of floating-point operations per iteration step:   8.6331E+09
 Probable CPU time per iteration step (hours):      0.09
 Required memory (Mbytes):    7024.3
 Number of intermediates:                                  48
 Number of intermediates to be stored:                     20
 Length of intermediate file (Mbytes):     249.4

 ************************ 2018-02-07 02:58:40 *************************
 Executing xmrcc...

 **********************************************************************
 CC(2)(3) calculation 
 
 
 Allocation of7024.3 Mbytes of memory...
 Number of spinorbitals:                   180
 Number of alpha electrons:                        5
 Number of beta electrons:                         4
 Spin multiplicity:                     2
 z-component of spin:  0.5
 Spatial symmetry:                      1
 Convergence criterion:  1.0E-07
 Construction of occupation graphs...
 Number of                     0 -fold excitations:                      1
 Number of                     1 -fold excitations:                    251
 Number of                     2 -fold excitations:                  52877
 Total number of configurations:                  53129
 Calculation of coupling coefficients...
 Length of intermediate file (Mbytes):     190.4
 
 ======================================================================
 
 Spin case  1   Alpha:  0   Beta:  3
 Number of excitations:                 101060
 Spin case  2   Alpha:  1   Beta:  2
 Number of excitations:                2330083
 Spin case  3   Alpha:  2   Beta:  1
 Number of excitations:                3080856
 Spin case  4   Alpha:  3   Beta:  0
 Number of excitations:                 245888
 Number of                     3 -fold excitations:                5757887
 
 Memory requirements /Mbyte/: 
               Minimal        Optimal
 Real*8:        250.6185       642.0786
 Integer:         1.3439
 Total:         251.9624       643.4225
 

 ************************ 2018-02-07 02:58:40 *************************
 Executing mrcc...

 **********************************************************************
 CCSD(T) calculation                                                    
 
 
 OpenMP parallel version is running.
 Number of CPUs:  24
 Allocation of  642.1 Mbytes of memory...
 Number of spinorbitals: 180
 Number of alpha electrons:  5
 Number of beta  electrons:  4
 Spin multiplicity: 2
 z-component of spin:  0.5
 Spatial symmetry: 1
 Convergence criterion:  1.0E-07
 Construction of occupation graphs...
 Number of 0-fold excitations: 1
 Number of 1-fold excitations: 251
 Number of 2-fold excitations: 52877
 Total number of determinants: 53129
 Calculation of coupling coefficients...
 Initial cluster amplitudes are generated.
 Length of intermediate file (Mbytes):     190.4
 Reading integral list from unit 55...
 Sorting integrals...
 Sorting integrals...
 Sorting integrals...
 Sorting integrals...
 Energy of reference determinant [au]:     -92.235454278013
 Calculation of MP denominators...
 
 Starting CC iteration...
 ======================================================================
 Norm of residual vector:     1.08470664
 CPU time [min]:     1.791                   Wall time [min]:     0.522
 
 Iteration  1  CC energy:   -92.51373154  Energy decrease:   0.27827727
 ======================================================================
 Norm of residual vector:     0.19428902
 CPU time [min]:     3.133                   Wall time [min]:     0.908
 
 Iteration  2  CC energy:   -92.51427124  Energy decrease:   0.00053970
 ======================================================================
 Norm of residual vector:     0.09066130
 CPU time [min]:     5.184                   Wall time [min]:     1.247
 
 Iteration  3  CC energy:   -92.53486426  Energy decrease:   0.02059301
 ======================================================================
 Norm of residual vector:     0.05071034
 CPU time [min]:     6.474                   Wall time [min]:     1.332
 
 Iteration  4  CC energy:   -92.54677062  Energy decrease:   0.01190637
 ======================================================================
 Norm of residual vector:     0.02824020
 CPU time [min]:     8.506                   Wall time [min]:     1.830
 
 Iteration  5  CC energy:   -92.55018509  Energy decrease:   0.00341446
 ======================================================================
 Norm of residual vector:     0.01286460
 CPU time [min]:     9.762                   Wall time [min]:     1.915
 
 Iteration  6  CC energy:   -92.55074633  Energy decrease:   0.00056124
 ======================================================================
 Norm of residual vector:     0.00844050
 CPU time [min]:    11.335                   Wall time [min]:     2.153
 
 Iteration  7  CC energy:   -92.55144428  Energy decrease:   0.00069795
 ======================================================================
 Norm of residual vector:     0.00432657
 CPU time [min]:    13.078                   Wall time [min]:     2.487
 
 Iteration  8  CC energy:   -92.55167170  Energy decrease:   0.00022743
 ======================================================================
 Norm of residual vector:     0.00229374
 CPU time [min]:    14.561                   Wall time [min]:     2.630
 
 Iteration  9  CC energy:   -92.55175363  Energy decrease:   0.00008193
 ======================================================================
 Norm of residual vector:     0.00128566
 CPU time [min]:    17.392                   Wall time [min]:     3.087
 
 Iteration 10  CC energy:   -92.55182706  Energy decrease:   0.00007342
 ======================================================================
 Norm of residual vector:     0.00065503
 CPU time [min]:    18.608                   Wall time [min]:     3.173
 
 Iteration 11  CC energy:   -92.55182078  Energy decrease:   0.00000628
 ======================================================================
 Norm of residual vector:     0.00027862
 CPU time [min]:    20.676                   Wall time [min]:     3.584
 
 Iteration 12  CC energy:   -92.55181183  Energy decrease:   0.00000895
 ======================================================================
 Norm of residual vector:     0.00009407
 CPU time [min]:    22.544                   Wall time [min]:     3.895
 
 Iteration 13  CC energy:   -92.55181075  Energy decrease:   0.00000108
 ======================================================================
 Norm of residual vector:     0.00003336
 CPU time [min]:    24.641                   Wall time [min]:     4.214
 
 Iteration 14  CC energy:   -92.55180844  Energy decrease:   0.00000230
 ======================================================================
 Norm of residual vector:     0.00001033
 CPU time [min]:    26.817                   Wall time [min]:     4.536
 
 Iteration 15  CC energy:   -92.55180799  Energy decrease:   0.00000045
 ======================================================================
 Norm of residual vector:     0.00000294
 CPU time [min]:    28.878                   Wall time [min]:     4.940
 
 Iteration 16  CC energy:   -92.55180813  Energy decrease:   0.00000013
 ======================================================================
 Norm of residual vector:     0.00000088
 CPU time [min]:    30.721                   Wall time [min]:     5.070
 
 Iteration 17  CC energy:   -92.55180807  Energy decrease:   0.00000005
 ======================================================================
 Norm of residual vector:     0.00000030
 CPU time [min]:    33.094                   Wall time [min]:     5.533
 
 Iteration 18  CC energy:   -92.55180808  Energy decrease:   0.00000001
 ======================================================================
 Norm of residual vector:     0.00000009
 CPU time [min]:    35.066                   Wall time [min]:     5.890
 
 Iteration 19  CC energy:   -92.55180808  Energy decrease:   1.3265E-09
 ======================================================================
 
 Iteration has converged in 19 steps.
 
 Final results:
 Total CCSD energy [au]:             -92.551808079104
 Total MP2 energy [au]:              -92.513731544428
 
 Perturbative corrections are calculated...
 ======================================================================
 Spin case  1   Alpha:  0   Beta:  3
 Number of excitations:        101060
 CPU time [min]:    35.259                   Wall time [min]:     5.912
 ======================================================================
 Spin case  2   Alpha:  1   Beta:  2
 Number of excitations:        2330083
 CPU time [min]:    35.580                   Wall time [min]:     5.926
 ======================================================================
 Spin case  3   Alpha:  2   Beta:  1
 Number of excitations:        3080856
 CPU time [min]:    35.897                   Wall time [min]:     5.939
 ======================================================================
 Spin case  4   Alpha:  3   Beta:  0
 Number of excitations:        245888
 CPU time [min]:    35.947                   Wall time [min]:     5.942
 ======================================================================
 Number of 3-fold excitations: 5757887
 CPU time [min]:    35.947                   Wall time [min]:     5.942
 
 Total CCSD[T] energy [au]:          -92.574706637331
 Total CCSD(T) energy [au]:          -92.570912254316

 ************************ 2018-02-07 03:04:38 *************************
 Executing goldstone...

 Generation of CC equations in terms of H and T...
 Generation of antisymmetrized Goldstone diagrams...
 Number of diagrams in T^1 equations:    15
 Number of diagrams in T^2 equations:    38
 Number of diagrams in T^3 equations:    49
 Number of diagrams in T^4 equations:     5
 Translation of diagrams to factorized equations...
 Optimizing intermediate calculation...
 Number of floating-point operations per iteration step:   2.2960E+12
 Probable CPU time per iteration step (hours):     22.96
 Required memory (Mbytes):    8939.9
 Number of intermediates:                                  79
 Number of intermediates to be stored:                     32
 Length of intermediate file (Mbytes):     295.2

 ************************ 2018-02-07 03:04:39 *************************
 Executing xmrcc...

 **********************************************************************
 CC(3)(4) calculation 
 
 
 Allocation of8939.9 Mbytes of memory...
 Number of spinorbitals:                   180
 Number of alpha electrons:                        5
 Number of beta electrons:                         4
 Spin multiplicity:                     2
 z-component of spin:  0.5
 Spatial symmetry:                      1
 Convergence criterion:  1.0E-07
 Construction of occupation graphs...
 Number of                     0 -fold excitations:                      1
 Number of                     1 -fold excitations:                    251
 Number of                     2 -fold excitations:                  52877
 Number of                     3 -fold excitations:                5757887
 Total number of configurations:                5811016
 Calculation of coupling coefficients...
 Length of intermediate file (Mbytes):     223.8
 
 ======================================================================
 
 Spin case  1   Alpha:  0   Beta:  4
 Number of excitations:                 529826
 Spin case  2   Alpha:  1   Beta:  3
 Number of excitations:               43406180
 Spin case  3   Alpha:  2   Beta:  2
 Number of excitations:              195726972
 Spin case  4   Alpha:  3   Beta:  1
 Number of excitations:               84891416
 Spin case  5   Alpha:  4   Beta:  0
 Number of excitations:                2528981
 Number of                     4 -fold excitations:              327083375
 
 Memory requirements /Mbyte/: 
               Minimal        Optimal
 Real*8:        691.0955       807.9564
 Integer:        38.6836
 Total:         729.7791       846.6400
 

 ************************ 2018-02-07 03:04:53 *************************
 Executing mrcc...

 **********************************************************************
 CCSDT(Q) calculation                                                   
 
 
 OpenMP parallel version is running.
 Number of CPUs:  24
 Allocation of  808.0 Mbytes of memory...
 Number of spinorbitals: 180
 Number of alpha electrons:  5
 Number of beta  electrons:  4
 Spin multiplicity: 2
 z-component of spin:  0.5
 Spatial symmetry: 1
 Convergence criterion:  1.0E-07
 Construction of occupation graphs...
 Number of 0-fold excitations: 1
 Number of 1-fold excitations: 251
 Number of 2-fold excitations: 52877
 Number of 3-fold excitations: 5757887
 Total number of determinants: 5811016
 Calculation of coupling coefficients...
 Initial cluster amplitudes are read from unit 16.
 Length of intermediate file (Mbytes):     223.8
 Reading integral list from unit 55...
 Sorting integrals...
 Sorting integrals...
 Sorting integrals...
 Sorting integrals...
 Energy of reference determinant [au]:     -92.235454278013
 Calculation of MP denominators...
 
 Starting CC iteration...
 ======================================================================
 Norm of residual vector:     0.35363735
 CPU time [min]:    11.490                   Wall time [min]:     1.761
 
 Iteration  1  CC energy:   -92.55180808  Energy decrease:   4.9961E-10
 ======================================================================
 Norm of residual vector:     0.08959032
 CPU time [min]:    22.835                   Wall time [min]:     3.275
 
 Iteration  2  CC energy:   -92.56452281  Energy decrease:   0.01271473
 ======================================================================
 Norm of residual vector:     0.03865744
 CPU time [min]:    34.038                   Wall time [min]:     4.362
 
 Iteration  3  CC energy:   -92.56823364  Energy decrease:   0.00371083
 ======================================================================
 Norm of residual vector:     0.01647500
 CPU time [min]:    45.268                   Wall time [min]:     5.629
 
 Iteration  4  CC energy:   -92.56956433  Energy decrease:   0.00133069
 ======================================================================
 Norm of residual vector:     0.01075671
 CPU time [min]:    58.618                   Wall time [min]:     7.241
 
 Iteration  5  CC energy:   -92.57131238  Energy decrease:   0.00174805
 ======================================================================
 Norm of residual vector:     0.00673991
 CPU time [min]:    73.203                   Wall time [min]:     8.511
 
 Iteration  6  CC energy:   -92.57262876  Energy decrease:   0.00131638
 ======================================================================
 Norm of residual vector:     0.00408737
 CPU time [min]:    86.204                   Wall time [min]:     9.725
 
 Iteration  7  CC energy:   -92.57314376  Energy decrease:   0.00051499
 ======================================================================
 Norm of residual vector:     0.00221388
 CPU time [min]:    98.313                   Wall time [min]:    11.090
 
 Iteration  8  CC energy:   -92.57328785  Energy decrease:   0.00014409
 ======================================================================
 Norm of residual vector:     0.00134632
 CPU time [min]:   111.079                   Wall time [min]:    12.090
 
 Iteration  9  CC energy:   -92.57331370  Energy decrease:   0.00002585
 ======================================================================
 Norm of residual vector:     0.00082463
 CPU time [min]:   124.964                   Wall time [min]:    13.299
 
 Iteration 10  CC energy:   -92.57329011  Energy decrease:   0.00002359
 ======================================================================
 Norm of residual vector:     0.00050239
 CPU time [min]:   139.078                   Wall time [min]:    14.662
 
 Iteration 11  CC energy:   -92.57327211  Energy decrease:   0.00001800
 ======================================================================
 Norm of residual vector:     0.00030078
 CPU time [min]:   152.490                   Wall time [min]:    15.962
 
 Iteration 12  CC energy:   -92.57327478  Energy decrease:   0.00000267
 ======================================================================
 Norm of residual vector:     0.00017229
 CPU time [min]:   164.800                   Wall time [min]:    17.000
 
 Iteration 13  CC energy:   -92.57327710  Energy decrease:   0.00000232
 ======================================================================
 Norm of residual vector:     0.00009421
 CPU time [min]:   176.950                   Wall time [min]:    18.176
 
 Iteration 14  CC energy:   -92.57327735  Energy decrease:   0.00000024
 ======================================================================
 Norm of residual vector:     0.00004783
 CPU time [min]:   191.312                   Wall time [min]:    19.592
 
 Iteration 15  CC energy:   -92.57327956  Energy decrease:   0.00000221
 ======================================================================
 Norm of residual vector:     0.00002272
 CPU time [min]:   205.243                   Wall time [min]:    20.941
 
 Iteration 16  CC energy:   -92.57328118  Energy decrease:   0.00000163
 ======================================================================
 Norm of residual vector:     0.00000952
 CPU time [min]:   220.249                   Wall time [min]:    22.392
 
 Iteration 17  CC energy:   -92.57328128  Energy decrease:   0.00000010
 ======================================================================
 Norm of residual vector:     0.00000396
 CPU time [min]:   234.310                   Wall time [min]:    23.587
 
 Iteration 18  CC energy:   -92.57328129  Energy decrease:   0.00000001
 ======================================================================
 Norm of residual vector:     0.00000180
 CPU time [min]:   248.314                   Wall time [min]:    24.733
 
 Iteration 19  CC energy:   -92.57328130  Energy decrease:   0.00000001
 ======================================================================
 Norm of residual vector:     0.00000089
 CPU time [min]:   267.196                   Wall time [min]:    26.013
 
 Iteration 20  CC energy:   -92.57328127  Energy decrease:   0.00000003
 ======================================================================
 Norm of residual vector:     0.00000040
 CPU time [min]:   282.072                   Wall time [min]:    27.502
 
 Iteration 21  CC energy:   -92.57328125  Energy decrease:   0.00000002
 ======================================================================
 Norm of residual vector:     0.00000018
 CPU time [min]:   296.259                   Wall time [min]:    28.767
 
 Iteration 22  CC energy:   -92.57328124  Energy decrease:   0.00000001
 ======================================================================
 Norm of residual vector:     0.00000008
 CPU time [min]:   307.101                   Wall time [min]:    29.731
 
 Iteration 23  CC energy:   -92.57328124  Energy decrease:   8.5049E-10
 ======================================================================
 
 Iteration has converged in 23 steps.
 
 Final results:
 Total CCSDT energy [au]:            -92.573281241901
 
 Perturbative corrections are calculated...
 ======================================================================
 Spin case  1   Alpha:  0   Beta:  4
 Number of excitations:        529826
 CPU time [min]:   310.542                   Wall time [min]:    29.915
 ======================================================================
 Spin case  2   Alpha:  1   Beta:  3
 Number of excitations:        43406180
 CPU time [min]:   349.127                   Wall time [min]:    31.828
 ======================================================================
 Spin case  3   Alpha:  2   Beta:  2
 Number of excitations:        195726972
 CPU time [min]:   426.812                   Wall time [min]:    35.514
 ======================================================================
 Spin case  4   Alpha:  3   Beta:  1
 Number of excitations:        84891416
 CPU time [min]:   470.076                   Wall time [min]:    37.482
 ======================================================================
 Spin case  5   Alpha:  4   Beta:  0
 Number of excitations:        2528981
 CPU time [min]:   473.867                   Wall time [min]:    37.691
 ======================================================================
 Number of 4-fold excitations: 327083375
 CPU time [min]:   473.867                   Wall time [min]:    37.691
 
 Total CCSDT[Q] energy [au]:         -92.574110923387
 Total CCSDT(Q) energy [au]:         -92.575737678829
 
 ************************ 2018-02-07 03:42:39 *************************
                      Normal termination of mrcc.
 **********************************************************************
--- SharcNET Job Epilogue ---
Job completed successfully.
               jobid: 1521305
               resid: 3002623
         exit status: 0
      allocated time: 2770.65
           user time: 22083.8
         system time: 8860.36
peak rss=5135028224; peak vsz=5135028224 (bytes)
atime=2770.65; utime=22083.8; stime=8860.36; exit=0
